ID,InChI,Solubility,SMILEScurated,SD,Group,Dataset,Composition,Error,Charge
A-1900,"InChI=1S/CH5O3Si.K/c1-5(2,3)4;/h2-3H,1H3;/q-1;+1",0.878663433,C[Si](O)(O)O,0,G1,A,multi-constituent,None,Uncharged
A-1901,"InChI=1S/C13H27N3O3Si/c1-8-11(4)14-17-20(7,18-15-12(5)9-2)19-16-13(6)10-3/h8-10H2,1-7H3/b14-11+,15-12+,16-13+",-0.479234017,CCC(C)=NO[Si](C)(ON=C(C)CC)ON=C(C)CC,0,G1,A,mono-constituent,None,Uncharged
A-1902,InChI=1S/H2O2/c1-2/h1-2H,0.468342293,OO,0,G1,A,mono-constituent,None,Uncharged
A-1903,"InChI=1S/C20H19N3O9S3.2Na/c1-10-6-13(9-18(20(10)23)35(30,31)32)19(11-2-4-14(21)16(7-11)33(24,25)26)12-3-5-15(22)17(8-12)34(27,28)29;;/h2-9,23H,21-22H2,1H3,(H,24,25,26)(H,27,28,29)(H,30,31,32);;/q;2*+1/p-2",-1.767563244,CC1=CC(C=C(C1=N)S([O-])(=O)=O)=C(C1=CC=C(N)C(=C1)S([O-])(=O)=O)C1=CC=C(N)C(=C1)S([O-])(=O)=O,0,G1,A,mono-constituent,None,Negative
A-1904,"InChI=1S/C8H8O3/c1-5-2-3-6(8(10)11)7(9)4-5/h2-4,9H,1H3,(H,10,11)",-1.182269102,CC1=CC=C(C([O-])=O)C(O)=C1,0.858865449,G2,A,mono-constituent,None,Negative
A-1907,"InChI=1S/C7H5NO5/c9-6-2-1-4(8(12)13)3-5(6)7(10)11/h1-3,9H,(H,10,11)",-2.262733408,OC1=CC=C(C=C1C([O-])=O)[N+]([O-])=O,0.107335082,G3,A,mono-constituent,None,Negative
A-1912,"InChI=1S/C8H9NO2/c1-6-3-4-8(9(10)11)5-7(6)2/h3-5H,1-2H3",-3.179451248,CC1=CC=C(C=C1C)[N+]([O-])=O,0,G1,A,mono-constituent,None,PureChargeSeparation
A-1913,"InChI=1S/C7H6Cl2/c8-5-6-3-1-2-4-7(6)9/h1-4H,5H2",-3.20690949,ClCC1=CC=CC=C1Cl,0,G1,A,mono-constituent,None,Uncharged
A-1914,"InChI=1S/C8H7N/c9-7-6-8-4-2-1-3-5-8/h1-5H,6H2",-3.068746,N#CCC1=CC=CC=C1,0,G1,A,mono-constituent,None,Uncharged
A-1916,"InChI=1S/C17H20O2/c1-10-5-14(6-11(2)16(10)18)9-15-7-12(3)17(19)13(4)8-15/h5-8,18-19H,9H2,1-4H3",-3.408824851,CC1=CC(CC2=CC(C)=C(O)C(C)=C2)=CC(C)=C1O,0,G1,A,mono-constituent,None,Uncharged
A-1921,"InChI=1S/C18H30O3S.Na/c1-2-3-4-5-6-7-8-9-10-14-17-21-22(19,20)18-15-12-11-13-16-18;/h11-13,15-16H,2-10,14,17H2,1H3;",-3.543437239,CCCCCCCCCCCCOS(=O)(=O)C1=CC=CC=C1,0.451544994,G3,A,None,None,Uncharged
A-1922,"InChI=1S/C13H28O/c1-2-3-4-5-6-7-8-9-10-11-12-13-14/h14H,2-13H2,1H3",-3.301824028,CCCCCCCCCCCCCO,0,G1,A,UVCB,None,Uncharged
A-1923,"InChI=1S/C6H8O7.Bi/c7-3(8)1-6(13,5(11)12)2-4(9)10;/h13H,1-2H2,(H,7,8)(H,9,10)(H,11,12);/q;+3/p-3",-4.55976264,OC(CC([O-])=O)(CC([O-])=O)C([O-])=O,0,G1,A,mono-constituent,None,Negative
A-1925,"InChI=1S/C13H24O3/c1-5-15-12(14)16-11-9-7-6-8-10(11)13(2,3)4/h10-11H,5-9H2,1-4H3",-4.321140283,CCOC(=O)OC1CCCCC1C(C)(C)C,0,G1,A,multi-constituent,None,Uncharged
A-1926,"InChI=1S/C29H33ClN2O2.ClH/c1-31(2)27(33)29(24-9-5-3-6-10-24,25-11-7-4-8-12-25)19-22-32-20-17-28(34,18-21-32)23-13-15-26(30)16-14-23;/h3-16,34H,17-22H2,1-2H3;1H",-4.673121562,CN(C)C(=O)C(CC[NH+]1CCC(O)(CC1)C1=CC=C(Cl)C=C1)(C1=CC=CC=C1)C1=CC=CC=C1,0,G1,A,None,None,Positive
A-1927,"InChI=1S/C12H22O3/c1-3-5-7-9-11(13)15-12(14)10-8-6-4-2/h3-10H2,1-2H3",-4.296805043,CCCCCC(=O)OC(=O)CCCCC,0,G1,A,mono-constituent,Non Valid pH,Uncharged
A-1930,"InChI=1S/C11H22O/c1-3-4-5-6-7-8-9-10-11(2)12/h3-10H2,1-2H3",-4.20182067,CCCCCCCCCC(C)=O,0,G1,A,mono-constituent,None,Uncharged
A-1931,"InChI=1S/C13H20O2/c1-12(2,3)14-15-13(4,5)11-9-7-6-8-10-11/h6-10H,1-5H3",-4.29093415,CC(C)(C)OOC(C)(C)C1=CC=CC=C1,0,G1,A,mono-constituent,Unstable,Uncharged
A-1933,"InChI=1S/C10H20O2S/c1-9(2)6-4-3-5-7-12-10(11)8-13/h9,13H,3-8H2,1-2H3",-4.285036897,CC(C)CCCCCOC(=O)CS,0,G1,A,UVCB,None,Uncharged
A-1934,"InChI=1S/C8H14/c1-3-5-7-8-6-4-2/h3-4H,1-2,5-8H2",-4.02327315,C=CCCCCC=C,0,G1,A,mono-constituent,None,Uncharged
A-1939,"InChI=1S/C12H22O2/c1-9(13)14-11-8-6-5-7-10(11)12(2,3)4/h10-11H,5-8H2,1-4H3/t10-,11+/m0/s1",-4.297335855,CC(=O)OC1CCCCC1C(C)(C)C,0,G1,A,mono-constituent,None,Uncharged
A-1940,"InChI=1S/C12H7Cl3O2/c13-7-1-3-11(9(15)5-7)17-12-4-2-8(14)6-10(12)16/h1-6,16H",-4.46171607,OC1=CC(Cl)=CC=C1OC1=CC=C(Cl)C=C1Cl,0.101243951,G5,A,mono-constituent,Non Valid pH,Uncharged
A-1942,"InChI=1S/C23H48N2O/c1-4-5-6-7-8-9-10-11-12-13-14-15-16-17-18-20-23(26)24-21-19-22-25(2)3/h4-22H2,1-3H3,(H,24,26)",-4.566614238,CCCCCCCCCCCCCCCCCC(=O)NCCC[NH+](C)C,0.67121134,G2,A,mono-constituent,None,Positive
A-1944,"InChI=1S/C22H16N4O4S.Na/c27-21-14-5-15-3-1-2-4-20(15)22(21)26-25-17-8-6-16(7-9-17)23-24-18-10-12-19(13-11-18)31(28,29)30;/h1-14,25H,(H,28,29,30);/q;+1/b24-23?,26-22-;",-4.65844166,[O-]S(=O)(=O)C1=CC=C(C=C1)N=NC1=CC=C(NN=C2C(=O)C=CC3=CC=CC=C23)C=C1,0,G1,A,mono-constituent,None,Negative
A-1946,InChI=1S/Mg.2H2O/h;2*1H2/q+2;;/p-2,-4.469144878,[Mg++],0.30175361,G5,A,None,None,Uncharged
A-1949,"InChI=1S/C10H18O.2C10H16/c1-9(2)8-4-6-10(3,11-9)7-5-8;1-7-4-5-8-6-9(7)10(8,2)3;1-8(2)10-6-4-9(3)5-7-10/h8H,4-7H2,1-3H3;4,8-9H,5-6H2,1-3H3;4,10H,1,5-7H2,2-3H3",-5.335685932,CC12CCC(CC1)C(C)(C)O2,1.624800909,G2,A,None,Multi-constituent Substances,Uncharged
A-1953,"InChI=1S/C12H26O/c1-2-3-4-5-6-7-8-9-10-11-12-13/h13H,2-12H2,1H3",-4.984746452,CCCCCCCCCCCCO,0.225952116,G5,A,mono-constituent,None,Uncharged
A-1954,InChI=1S/CHNS.Cu/c2-1-3;/h3H;/q;+1/p-1,-4.80401091,[S-]C#N,0.813608589,G4,A,None,None,Negative
A-1956,"InChI=1S/C18H18N3O3PS/c19-13-1-7-16(8-2-13)22-25(26,23-17-9-3-14(20)4-10-17)24-18-11-5-15(21)6-12-18/h1-12H,19-21H2",-5.309407137,NC1=CC=C(OP(=S)(OC2=CC=C(N)C=C2)OC2=CC=C(N)C=C2)C=C1,0,G1,A,mono-constituent,None,Uncharged
A-1958,"InChI=1S/C27H32O6/c1-19(2)25(28)32-17-15-30-23-11-7-21(8-12-23)27(5,6)22-9-13-24(14-10-22)31-16-18-33-26(29)20(3)4/h7-14H,1,3,15-18H2,2,4-6H3",-5.379201886,CC(=C)C(=O)OCCOC1=CC=C(C=C1)C(C)(C)C1=CC=C(OCCOC(=O)C(C)=C)C=C1,0,G1,A,None,None,Uncharged
A-1959,"InChI=1S/C16H28O/c1-14(2)8-5-9-15(3)12(14)6-10-16(4)13(15)7-11-17-16/h12-13H,5-11H2,1-4H3/t12-,13+,15-,16+/m0/s1",-5.099487786,CC12CCC3C(C)(C)CCCC3(C)C1CCO2,0.25911692,G3,A,mono-constituent,Sanofi Overlap,Uncharged
A-1960,"InChI=1S/C16H28O/c1-14(2)8-5-9-15(3)12(14)6-10-16(4)13(15)7-11-17-16/h12-13H,5-11H2,1-4H3",-5.099487786,CC12CCC3C(C)(C)CCCC3(C)C1CCO2,0,G1,A,None,None,Uncharged
A-1961,"InChI=1S/C18H28O2/c1-4-7-9-14-17(18(19-5-2)20-6-3)15-16-12-10-8-11-13-16/h8,10-13,15,18H,4-7,9,14H2,1-3H3/b17-15+",-5.172056518,CCCCCC(=CC1=CC=CC=C1)C(OCC)OCC,0,G1,A,multi-constituent,None,Uncharged
A-1963,"InChI=1S/3CH2O3.2La/c3*2-1(3)4;;/h3*(H2,2,3,4);;/q;;;2*+3/p-6",-5.395892116,[La+3],0.082223639,G3,A,mono-constituent,None,Uncharged
A-1967,"InChI=1S/C22H24N2O4/c1-13-9-17(5-7-19(13)23-21(27)11-15(3)25)18-6-8-20(14(2)10-18)24-22(28)12-16(4)26/h5-10H,11-12H2,1-4H3,(H,23,27)(H,24,28)",-5.325018234,CC(=O)CC(=O)NC1=CC=C(C=C1C)C1=CC=C(NC(=O)CC(C)=O)C(C)=C1,0,G1,A,mono-constituent,None,Uncharged
A-1968,"InChI=1S/C19H16N2O3/c1-12(22)20-15-6-8-16(9-7-15)21-19(24)17-10-13-4-2-3-5-14(13)11-18(17)23/h2-11,23H,1H3,(H,20,22)(H,21,24)",-5.250349512,CC(=O)NC1=CC=C(NC(=O)C2=CC3=CC=CC=C3C=C2O)C=C1,0,G1,A,mono-constituent,None,Uncharged
A-1969,"InChI=1S/C18H14ClNO2/c1-11-6-7-14(19)10-16(11)20-18(22)15-8-12-4-2-3-5-13(12)9-17(15)21/h2-10,21H,1H3,(H,20,22)",-5.238559032,CC1=CC=C(Cl)C=C1NC(=O)C1=CC2=CC=CC=C2C=C1O,0,G1,A,mono-constituent,None,Uncharged
A-1970,InChI=1S/Nd.3H2O/h;3*1H2/q+3;;;/p-3,-5.035343004,[Nd+3],0,G1,A,None,None,Uncharged
A-1973,"InChI=1S/C11H14N2S2/c1-11(2,3)13-15-10-12-8-6-4-5-7-9(8)14-10/h4-7,13H,1-3H3",-5.136722389,CC(C)(C)NSC1=NC2=CC=CC=C2S1,0.120274624,G3,A,mono-constituent,None,Uncharged
A-1974,InChI=1S/Te,-4.875401753,[TeH2],0,G1,A,mono-constituent,None,Uncharged
A-1978,"InChI=1S/C14H26O2/c1-5-7-14(15)16-11-10-13(4)9-6-8-12(2)3/h8,13H,5-7,9-11H2,1-4H3",-5.142612081,CCCC(=O)OCCC(C)CCC=C(C)C,0,G1,A,multi-constituent,None,Uncharged
A-1981,"InChI=1S/C18H15NO3/c1-22-15-8-6-14(7-9-15)19-18(21)16-10-12-4-2-3-5-13(12)11-17(16)20/h2-11,20H,1H3,(H,19,21)",-5.263224655,COC1=CC=C(NC(=O)C2=CC3=CC=CC=C3C=C2O)C=C1,0,G1,A,mono-constituent,None,Uncharged
A-1982,"InChI=1S/C16H12N2O2/c1-12(13-2-6-15(7-3-13)19-10-17)14-4-8-16(9-5-14)20-11-18/h2-9,12H,1H3",-5.217950889,CC(C1=CC=C(OC#N)C=C1)C1=CC=C(OC#N)C=C1,0,G1,A,None,None,Uncharged
A-1984,"InChI=1S/2C8H17.2ClH.Sn/c2*1-3-5-7-8-6-4-2;;;/h2*1,3-8H2,2H3;2*1H;/q;;;;+2/p-2",-5.415041201,CCCCCCCC[Sn](Cl)(Cl)CCCCCCCC,0,G1,A,mono-constituent,Unstable,Uncharged
A-1985,InChI=1S/2Dy.3O/q2*+3;3*-2,-5.367585356,[Dy+3],0,G1,A,mono-constituent,None,Uncharged
A-1986,"InChI=1S/C12H24O/c1-2-3-4-5-6-7-8-9-10-11-12-13/h12H,2-11H2,1H3",-5.061459548,CCCCCCCCCCCC=O,0,G1,A,mono-constituent,None,Uncharged
A-1991,"InChI=1S/C14H16N2/c1-3-14(2)15-11-8-4-6-10-7-5-9-12(16-14)13(10)11/h4-9,15-16H,3H2,1-2H3",-3.247760565,CCC1(C)NC2=CC=CC3=CC=CC(N1)=C23,0,G1,A,mono-constituent,Non Valid pH,Uncharged
A-1994,"InChI=1S/C22H42O6/c1-5-9-11-19(7-3)21(23)27-17-15-25-13-14-26-16-18-28-22(24)20(8-4)12-10-6-2/h19-20H,5-18H2,1-4H3",-5.420152134,CCCCC(CC)C(=O)OCCOCCOCCOC(=O)C(CC)CCCC,0.05378232,G3,A,mono-constituent,None,Uncharged
A-1995,"InChI=1S/2C26H32O4.C13H16O2/c1-23(2)15-26(7,18-11-8-16(9-12-18)21(27)24(3,4)29)19-13-10-17(14-20(19)23)22(28)25(5,6)30;1-23(2)15-26(7,18-11-8-16(9-12-18)21(27)24(3,4)29)20-14-17(10-13-19(20)23)22(28)25(5,6)30;1-9(2)10-5-7-11(8-6-10)12(14)13(3,4)15/h2*8-14,29-30H,15H2,1-7H3;5-8,15H,1H2,2-4H3",-5.827328879,CC(C)(O)C(=O)C1=CC=C(C=C1)C1(C)CC(C)(C)C2=CC(=CC=C12)C(=O)C(C)(C)O,0.147638833,G3,A,None,Multi-constituent Substances,Uncharged
A-1997,"InChI=1S/C29H14N2O5/c30-24-18(10-9-17-23(24)28(35)16-8-4-3-7-15(16)25(17)32)29-31-21-11-19-20(12-22(21)36-29)27(34)14-6-2-1-5-13(14)26(19)33/h1-12H,30H2",-5.496412982,NC1=C(C=CC2=C1C(=O)C1=CC=CC=C1C2=O)C1=NC2=CC3=C(C=C2O1)C(=O)C1=CC=CC=C1C3=O,0,G1,A,mono-constituent,None,Uncharged
A-1998,"InChI=1S/C19H17NO3/c1-2-23-16-9-7-15(8-10-16)20-19(22)17-11-13-5-3-4-6-14(13)12-18(17)21/h3-12,21H,2H2,1H3,(H,20,22)",-5.311540545,CCOC1=CC=C(NC(=O)C2=CC3=CC=CC=C3C=C2O)C=C1,0,G1,A,mono-constituent,None,Uncharged
A-1999,"InChI=1S/C19H16ClNO4/c1-24-17-10-18(25-2)15(9-14(17)20)21-19(23)13-7-11-5-3-4-6-12(11)8-16(13)22/h3-10,22H,1-2H3,(H,21,23)",-5.377540581,COC1=CC(OC)=C(NC(=O)C2=CC3=CC=CC=C3C=C2O)C=C1Cl,0,G1,A,mono-constituent,None,Uncharged
A-2000,"InChI=1S/C42H23N3O6/c46-37-24-14-7-8-15-25(24)38(47)34-33(37)30(44-42(51)22-12-5-2-6-13-22)20-28-23-18-19-27-32(35(23)45-36(28)34)40(49)26-16-9-17-29(31(26)39(27)48)43-41(50)21-10-3-1-4-11-21/h1-20,45H,(H,43,50)(H,44,51)",-5.647161854,O=C(NC1=CC=CC2=C1C(=O)C1=C(C3=C(C=C1)C1=C(N3)C3=C(C(NC(=O)C4=CC=CC=C4)=C1)C(=O)C1=CC=CC=C1C3=O)C2=O)C1=CC=CC=C1,0,G1,A,mono-constituent,Prediction Estimation,Uncharged
A-2001,"InChI=1S/C16H16O3S/c1-18-13-8-6-12(7-9-13)16(17)11-20-15-5-3-4-14(10-15)19-2/h3-10H,11H2,1-2H3",-5.284725265,COC1=CC=C(C=C1)C(=O)CSC1=CC=CC(OC)=C1,0.048983507,G5,A,mono-constituent,None,Uncharged
A-2004,"InChI=1S/C31H15NO3/c33-29-19-6-2-1-5-15(19)16-13-14-24-26-17(9-11-22(29)25(16)26)18-10-12-23-27(28(18)32-24)31(35)21-8-4-3-7-20(21)30(23)34/h1-14,32H",-5.506567843,[O-]C1=C2C(=CC=C3C4=C5C(=CC=C6C7=CC=CC=C7C(=O)C(C=C4)=C56)N=C23)C(=O)C2=CC=CC=C12,0,G1,A,mono-constituent,Prediction Estimation,Negative
A-2005,"InChI=1S/C10H20O5P2S2/c1-9(2)5-11-16(18,12-6-9)15-17(19)13-7-10(3,4)8-14-17/h5-8H2,1-4H3",-5.393383395,CC1(C)COP(=S)(OP2(=S)OCC(C)(C)CO2)OC1,0,G1,A,mono-constituent,None,Uncharged
A-2007,"InChI=1S/C10H18/c1-8(2)10-6-4-9(3)5-7-10/h4,8,10H,5-7H2,1-3H3",-5.010343937,CC(C)C1CCC(C)=CC1,0,G1,A,mono-constituent,None,Uncharged
A-2008,"InChI=1S/C21H36N6O6/c28-16(29)10-4-1-7-13-22-19-25-20(23-14-8-2-5-11-17(30)31)27-21(26-19)24-15-9-3-6-12-18(32)33/h1-15H2,(H,28,29)(H,30,31)(H,32,33)(H3,22,23,24,25,26,27)",-2.542361308,[O-]C(=O)CCCCCNC1=NC(NCCCCCC([O-])=O)=[NH+]C(NCCCCCC([O-])=O)=N1,1.873477243,G4,A,mono-constituent,None,Zwitterion
A-2009,"InChI=1S/C13H24O2/c1-4-13(14)15-11-9-7-5-6-8-10-12(2)3/h4,12H,1,5-11H2,2-3H3",-5.199912698,CC(C)CCCCCCCOC(=O)C=C,0,G1,A,UVCB,None,Uncharged
A-2011,"InChI=1S/C12H24O/c1-3-4-5-6-7-8-9-10-12(2)11-13/h11-12H,3-10H2,1-2H3",-5.151636178,CCCCCCCCCC(C)C=O,0,G1,A,mono-constituent,None,Uncharged
A-2012,"InChI=1S/C25H31N3/c1-26(2)22-13-7-19(8-14-22)25(20-9-15-23(16-10-20)27(3)4)21-11-17-24(18-12-21)28(5)6/h7-18,25H,1-6H3",-5.458398413,CN(C)C1=CC=C(C=C1)C(C1=CC=C(C=C1)N(C)C)C1=CC=C(C=C1)N(C)C,0,G1,A,mono-constituent,None,Uncharged
A-2013,"InChI=1S/3C2H2O4.2Gd/c3*3-1(4)2(5)6;;/h3*(H,3,4)(H,5,6);;/q;;;2*+3/p-6",-5.648400548,[Gd+3],0.330205314,G5,A,mono-constituent,None,Uncharged
A-2015,InChI=1S/Y,-4.834987719,[Y],0,G1,A,mono-constituent,None,Uncharged
A-2016,InChI=1S/C26H16O2S2/c27-25-19-13-7-15-21(29-17-9-3-1-4-10-17)23(19)26(28)24-20(25)14-8-16-22(24)30-18-11-5-2-6-12-18/h1-16H,-5.517335043,O=C1C2=CC=CC(SC3=CC=CC=C3)=C2C(=O)C2=C(SC3=CC=CC=C3)C=CC=C12,0,G1,A,mono-constituent,None,Uncharged
A-2017,InChI=1S/11O.6Pr/q11*-2;6*+3,-5.905407865,[Pr+3],0,G1,A,None,None,Uncharged
A-2019,"InChI=1S/C20H24O2/c1-14-12-16(6-8-18(14)21)20(10-4-3-5-11-20)17-7-9-19(22)15(2)13-17/h6-9,12-13,21-22H,3-5,10-11H2,1-2H3",-5.371522306,CC1=CC(=CC=C1O)C1(CCCCC1)C1=CC=C(O)C(C)=C1,0,G1,A,mono-constituent,None,Uncharged
A-2022,"InChI=1S/C18H14N2O6S.Ca/c1-10-6-7-14(15(8-10)27(24,25)26)19-20-16-12-5-3-2-4-11(12)9-13(17(16)21)18(22)23;/h2-9,19H,1H3,(H,22,23)(H,24,25,26);/q;+2/p-2/b20-16-;",-5.548642222,CC1=CC=C(N=NC2=C(O)C(=CC3=CC=CC=C23)C([O-])=O)C(=C1)S([O-])(=O)=O,0.190105621,G3,A,mono-constituent,None,Negative
A-2025,"InChI=1S/C20H36O4/c1-5-9-11-17(7-3)15-23-19(21)13-14-20(22)24-16-18(8-4)12-10-6-2/h13-14,17-18H,5-12,15-16H2,1-4H3/b14-13+",-5.456575257,CCCCC(CC)COC(=O)C=CC(=O)OCC(CC)CCCC,0.962237628,G2,A,mono-constituent,None,Uncharged
A-2026,"InChI=1S/C19H20O4/c1-19(2,13-22-17(20)15-9-5-3-6-10-15)14-23-18(21)16-11-7-4-8-12-16/h3-12H,13-14H2,1-2H3",-5.422780359,CC(C)(COC(=O)C1=CC=CC=C1)COC(=O)C1=CC=CC=C1,0.009401782,G3,A,mono-constituent,None,Uncharged
A-2029,"InChI=1S/Ca.2H3O3P/c;2*1-4(2)3/h;2*4H,(H2,1,2,3)/q+2;;/p-2",-5.253149755,OP([O-])=O,0,G1,A,None,None,Negative
A-2030,"InChI=1S/C15H30O2/c1-2-16-14-17-15-12-10-8-6-4-3-5-7-9-11-13-15/h15H,2-14H2,1H3",-5.335319968,CCOCOC1CCCCCCCCCCC1,0,G1,A,mono-constituent,None,Uncharged
A-2032,"InChI=1S/C15H12Br4O2/c1-15(2,7-3-9(16)13(20)10(17)4-7)8-5-11(18)14(21)12(19)6-8/h3-6,20-21H,1-2H3",-5.694106411,CC(C)(C1=CC(Br)=C([O-])C(Br)=C1)C1=CC(Br)=C([O-])C(Br)=C1,0.635897042,G4,A,mono-constituent,None,Negative
A-2033,"InChI=1S/C18H26O4/c1-13(2)9-11-21-17(19)15-7-5-6-8-16(15)18(20)22-12-10-14(3)4/h5-8,13-14H,9-12H2,1-4H3",-5.444898911,CC(C)CCOC(=O)C1=CC=CC=C1C(=O)OCCC(C)C,0,G1,A,mono-constituent,None,Uncharged
A-2035,"InChI=1S/2C5H11NS2.Zn/c2*1-3-6(4-2)5(7)8;/h2*3-4H2,1-2H3,(H,7,8);/q;;+2/p-2",-5.533333117,CCN(CC)C([S-])=S,0,G1,A,mono-constituent,None,Negative
A-2036,"InChI=1S/C30H24O8P2/c31-39(33-25-14-5-1-6-15-25,34-26-16-7-2-8-17-26)37-29-22-13-23-30(24-29)38-40(32,35-27-18-9-3-10-19-27)36-28-20-11-4-12-21-28/h1-24H",-5.738072007,O=P(OC1=CC=CC=C1)(OC1=CC=CC=C1)OC1=CC(OP(=O)(OC2=CC=CC=C2)OC2=CC=CC=C2)=CC=C1,1.447812781,G4,A,None,None,Uncharged
A-2037,"InChI=1S/C12H9N/c1-3-7-11-9(5-1)10-6-2-4-8-12(10)13-11/h1-8,13H",-5.21042762,N1C2=C(C=CC=C2)C2=C1C=CC=C2,0.128850356,G5,A,mono-constituent,None,Uncharged
A-2039,"InChI=1S/C20H26O4/c21-19(23-15-9-3-1-4-10-15)17-13-7-8-14-18(17)20(22)24-16-11-5-2-6-12-16/h7-8,13-16H,1-6,9-12H2",-5.512605542,O=C(OC1CCCCC1)C1=CC=CC=C1C(=O)OC1CCCCC1,0.297802771,G3,A,mono-constituent,None,Uncharged
A-2041,"InChI=1S/C23H32O4/c1-14(24)23(27-15(2)25)12-9-20-18-6-5-16-13-17(26)7-10-21(16,3)19(18)8-11-22(20,23)4/h13,18-20H,5-12H2,1-4H3",-5.566810733,CC(=O)OC1(CCC2C3CCC4=CC(=O)CCC4(C)C3CCC12C)C(C)=O,0,G1,A,mono-constituent,None,Uncharged
A-2042,"InChI=1S/C22H43NO3/c1-2-3-4-5-6-7-8-9-10-11-12-13-14-15-16-17-22(26)23(18-20-24)19-21-25/h9-10,24-25H,2-8,11-21H2,1H3/b10-9+",-5.567720212,CCCCCCCCC=CCCCCCCCC(=O)N(CCO)CCO,0,G1,A,None,None,Uncharged
A-2043,"InChI=1S/C22H26O8/c1-5-27-19(23)17(20(24)28-6-2)13-15-9-11-16(12-10-15)14-18(21(25)29-7-3)22(26)30-8-4/h9-14H,5-8H2,1-4H3",-5.621635269,CCOC(=O)C(=CC1=CC=C(C=C(C(=O)OCC)C(=O)OCC)C=C1)C(=O)OCC,0,G1,A,mono-constituent,None,Uncharged
A-2045,"InChI=1S/C17H16O2/c18-17(12-11-15-7-3-1-4-8-15)19-14-13-16-9-5-2-6-10-16/h1-12H,13-14H2/b12-11+",-5.401939627,O=C(OCCC1=CC=CC=C1)C=CC1=CC=CC=C1,0.140749156,G3,A,mono-constituent,None,Uncharged
A-2046,"InChI=1S/C20H41NO2/c1-2-3-4-5-6-7-8-9-10-11-12-13-14-15-16-17-20(23)21-18-19-22/h22H,2-19H2,1H3,(H,21,23)",-5.515281581,CCCCCCCCCCCCCCCCCC(=O)NCCO,0,G1,A,UVCB,None,Uncharged
A-2047,"InChI=1S/C17H12ClNO2/c18-13-5-7-14(8-6-13)19-17(21)15-9-11-3-1-2-4-12(11)10-16(15)20/h1-10,20H,(H,19,21)",-5.473838643,OC1=CC2=CC=CC=C2C=C1C(=O)NC1=CC=C(Cl)C=C1,0,G1,A,mono-constituent,None,Uncharged
A-2049,"InChI=1S/C42H72N2O5/c1-18-19-20-42(34(46)48-29-24-38(8,9)43(16)39(10,11)25-29,35(47)49-30-26-40(12,13)44(17)41(14,15)27-30)23-28-21-31(36(2,3)4)33(45)32(22-28)37(5,6)7/h21-22,29-30,45H,18-20,23-27H2,1-17H3",-5.835720369,CCCCC(CC1=CC(=C(O)C(=C1)C(C)(C)C)C(C)(C)C)(C(=O)OC1CC(C)(C)[NH+](C)C(C)(C)C1)C(=O)OC1CC(C)(C)[NH+](C)C(C)(C)C1,0.150514998,G3,A,mono-constituent,None,Positive
A-2053,"InChI=1S/C15H10BrClFNO2/c16-8-14(20)19-13-6-5-9(17)7-11(13)15(21)10-3-1-2-4-12(10)18/h1-7H,8H2,(H,19,20)",-5.569345786,FC1=CC=CC=C1C(=O)C1=CC(Cl)=CC=C1NC(=O)CBr,0.007519087,G3,A,mono-constituent,None,Uncharged
A-2055,"InChI=1S/C17H28O2/c1-11-6-7-13-15(3,4)14-10-17(11,13)9-8-16(14,5)19-12(2)18/h11,13-14H,6-10H2,1-5H3/t11-,13+,14?,16?,17?/m1/s1",-5.426641039,CC1CCC2C(C)(C)C3CC12CCC3(C)OC(C)=O,0,G1,A,mono-constituent,None,Uncharged
A-2057,"InChI=1S/C18H36O3/c1-2-3-4-11-14-17(19)15-12-9-7-5-6-8-10-13-16-18(20)21/h17,19H,2-16H2,1H3,(H,20,21)",-5.488370089,CCCCCCC(O)CCCCCCCCCCC([O-])=O,0,G1,A,mono-constituent,None,Negative
A-2060,InChI=1S/C26H12N4O2/c31-25-15-11-12-16-22-14(24-28-18-6-2-4-8-20(18)30(24)26(16)32)10-9-13(21(15)22)23-27-17-5-1-3-7-19(17)29(23)25/h1-12H,-5.633055848,O=C1N2C3=CC=CC=C3N=C2C2=C3C1=CC=C1C(=O)N4C5=CC=CC=C5N=C4C(C=C2)=C31,1.062469368,G2,A,mono-constituent,None,Uncharged
A-2062,"InChI=1S/C18H14N2O6S.Ba/c1-10-6-7-14(15(8-10)27(24,25)26)19-20-16-12-5-3-2-4-11(12)9-13(17(16)21)18(22)23;/h2-9,19H,1H3,(H,22,23)(H,24,25,26);/q;+2/p-2/b20-16-;",-5.735147106,[Ba++].CC1=CC=C(N=NC2=C(O)C(=CC3=CC=CC=C23)C([O-])=O)C(=C1)S([O-])(=O)=O,0.679510971,G2,A,mono-constituent,None,Negative
A-2063,"InChI=1S/C17H14N2O2/c1-17(2,13-3-7-15(8-4-13)20-11-18)14-5-9-16(10-6-14)21-12-19/h3-10H,1-2H3",-5.469558378,CC(C)(C1=CC=C(OC#N)C=C1)C1=CC=C(OC#N)C=C1,0,G1,A,mono-constituent,Non Valid pH,Uncharged
A-2065,"InChI=1S/C12H23N/c1-2-3-4-5-6-7-8-9-10-11-12-13/h2-11H2,1H3",-5.289969947,CCCCCCCCCCCC#N,0,G1,A,mono-constituent,None,Uncharged
A-2073,"InChI=1S/C12H8Cl2O2S/c13-9-1-5-11(6-2-9)17(15,16)12-7-3-10(14)4-8-12/h1-8H",-5.52363608,ClC1=CC=C(C=C1)S(=O)(=O)C1=CC=C(Cl)C=C1,0,G1,A,mono-constituent,Non Valid pH,Uncharged
A-2077,"InChI=1S/C20H36N2/c1-15(2)7-9-17(5)21-19-11-13-20(14-12-19)22-18(6)10-8-16(3)4/h11-18,21-22H,7-10H2,1-6H3",-5.575133655,CC(C)CCC(C)NC1=CC=C([NH2+]C(C)CCC(C)C)C=C1,0.706867138,G2,A,mono-constituent,Unstable,Positive
A-2079,"InChI=1S/C15H30O/c1-14(13-16)15-11-9-7-5-3-2-4-6-8-10-12-15/h14-16H,2-13H2,1H3",-5.451794109,CC(CO)C1CCCCCCCCCCC1,0,G1,A,mono-constituent,None,Uncharged
A-2083,"InChI=1S/C12H22O2/c1-3-4-5-6-7-8-9-10-11-12(13)14-2/h3H,1,4-11H2,2H3",-5.397515352,COC(=O)CCCCCCCCC=C,0,G1,A,mono-constituent,None,Uncharged
A-2084,"InChI=1S/3C20H4Br4Cl4O5.2Al/c3*21-5-1-3-7(8-9(20(31)32)13(26)15(28)14(27)12(8)25)4-2-6(22)17(30)11(24)19(4)33-18(3)10(23)16(5)29;;/h3*1-2,29H,(H,31,32);;/q;;;2*+3/p-6",-6.490069011,[O-]C(=O)C1=C(Cl)C(Cl)=C(Cl)C(Cl)=C1C1=C2C=C(Br)C(=O)C(Br)=C2OC2=C(Br)C([O-])=C(Br)C=C12,0,G1,A,None,None,Negative
A-2085,InChI=1S/2Bi.3O/q2*+3;3*-2,-5.777924822,[Bi+3],1.021704799,G4,A,None,None,Uncharged
A-2086,"InChI=1S/C18H22O2/c1-18-9-8-14-13-5-3-12(19)10-11(13)2-4-15(14)16(18)6-7-17(18)20/h3,5,10,14-16,19H,2,4,6-9H2,1H3/t14-,15-,16+,18+/m1/s1",-5.551148121,CC12CCC3C(CCC4=CC(O)=CC=C34)C1CCC2=O,0.798174061,G2,A,mono-constituent,None,Uncharged
A-2087,"InChI=1S/C15H24O/c1-10-8-11(14(2,3)4)13(16)12(9-10)15(5,6)7/h8-9,16H,1-7H3",-5.462311288,CC1=CC(=C(O)C(=C1)C(C)(C)C)C(C)(C)C,0.159617264,G5,A,mono-constituent,None,Uncharged