ID,InChI,Solubility,SMILEScurated,SD,Group,Dataset,Composition,Error,Charge
B-1658,"InChI=1S/C17H36O/c1-2-3-4-5-6-7-8-9-10-11-12-13-14-15-16-17-18/h18H,2-17H2,1H3",-7.506,CCCCCCCCCCCCCCCCCO,0,G1,B,None,None,Uncharged
B-1659,"InChI=1S/C6H12N2O2/c1-5-3-8(7-9)4-6(2)10-5/h5-6H,3-4H2,1-2H3",-0.0655,CC1CN(CC(C)O1)N=O,0,G1,B,None,None,Uncharged
B-1661,"InChI=1S/C8H11N/c1-6-4-5-7(2)9-8(6)3/h4-5H,1-3H3",-0.5893,CC1=CC=C(C)C(C)=N1,0,G1,B,None,None,Uncharged
B-1663,"InChI=1S/C9H10O/c10-9-5-4-7-2-1-3-8(7)6-9/h4-6,10H,1-3H2",-1.3285,OC1=CC=C2CCCC2=C1,0,G1,B,None,None,Uncharged
B-1664,"InChI=1S/C4H6Cl2/c5-3-1-2-4-6/h1-2H,3-4H2/b2-1-",-2.3333,ClCC=CCCl,0,G1,B,None,None,Uncharged
B-1665,"InChI=1S/C7H15N/c1-2-7-5-3-4-6-8-7/h7-8H,2-6H2,1H3/t7-/m1/s1",-0.3463,CCC1CCCC[NH2+]1,0,G1,B,None,None,Positive
B-1667,"InChI=1S/C12H18O/c13-12-9-5-4-8-11(12)10-6-2-1-3-7-10/h6,11H,1-5,7-9H2",-2.774,O=C1CCCCC1C1=CCCCC1,0,G1,B,None,None,Uncharged
B-1668,"InChI=1S/C9H7BrO4/c1-5(11)14-8-3-2-6(10)4-7(8)9(12)13/h2-4H,1H3,(H,12,13)",-2.5895,CC(=O)OC1=CC=C(Br)C=C1C([O-])=O,0,G1,B,None,None,Negative
B-1671,"InChI=1S/C8H15NO3/c1-3-9(4-2)7(10)5-6-8(11)12/h3-6H2,1-2H3,(H,11,12)",-0.7937,CCN(CC)C(=O)CCC([O-])=O,0,G1,B,None,None,Negative
B-1673,"InChI=1S/C8H10N2O2/c1-12-7-4-2-6(3-5-7)10-8(9)11/h2-5H,1H3,(H3,9,10,11)",-1.5917,COC1=CC=C(NC(N)=O)C=C1,0,G1,B,None,None,Uncharged
B-1674,"InChI=1S/C7H7NO4/c1-12-5-2-3-7(9)6(4-5)8(10)11/h2-4,9H,1H3",-2.8409,COC1=CC=C(O)C(=C1)[N+]([O-])=O,0,G1,B,None,None,PureChargeSeparation
B-1675,"InChI=1S/C6H14O2/c1-3-4-8-5-6(2)7/h6-7H,3-5H2,1-2H3",0.9275,CCCOCC(C)O,0,G1,B,None,None,Uncharged
B-1676,"InChI=1S/C5H10O/c1-3-4-5(2)6/h3-6H,1-2H3/b4-3+",0.0152,CC=CC(C)O,0,G1,B,None,None,Uncharged
B-1677,"InChI=1S/C7H7ClO/c1-5-4-6(8)2-3-7(5)9/h2-4,9H,1H3",-1.552,CC1=CC(Cl)=CC=C1O,0.120173002,G3,B,None,None,Uncharged
B-1678,"InChI=1S/C7H6Cl2O/c1-4-2-5(8)3-6(9)7(4)10/h2-3,10H,1H3",-2.0439,CC1=CC(Cl)=CC(Cl)=C1O,0,G1,B,None,None,Uncharged
B-1679,"InChI=1S/C7H8N2O3S/c8-7(10)5-2-1-3-6(4-5)13(9,11)12/h1-4H,(H2,8,10)(H2,9,11,12)",-2.1554,NC(=O)C1=CC=CC(=C1)S(N)(=O)=O,0,G1,B,None,None,Uncharged
B-1680,"InChI=1S/C3H2Br2O2/c4-2(5)1-3(6)7/h1H,(H,6,7)",-0.8358,[O-]C(=O)C=C(Br)Br,0,G1,B,None,None,Negative
B-1682,"InChI=1S/C4H10N4O2/c1-2(7-3(5)9)8-4(6)10/h2H,1H3,(H3,5,7,9)(H3,6,8,10)",-0.5916,CC(NC(N)=O)NC(N)=O,0,G1,B,None,None,Uncharged
B-1683,"InChI=1S/C7H13N3O/c8-7(11)10-9-6-4-2-1-3-5-6/h1-5H2,(H3,8,10,11)",-1.4127,NC(=O)NN=C1CCCCC1,0,G1,B,None,None,Uncharged
B-1684,"InChI=1S/C14H12O3/c15-13(7-8-14(16)17)12-6-5-10-3-1-2-4-11(10)9-12/h1-6,9H,7-8H2,(H,16,17)",-3.8533,[O-]C(=O)CCC(=O)C1=CC2=CC=CC=C2C=C1,0,G1,B,None,None,Negative
B-1685,"InChI=1S/C6H12N2O3/c1-8(2)7-5(9)3-4-6(10)11/h3-4H2,1-2H3,(H,7,9)(H,10,11)",-0.2046,CN(C)NC(=O)CCC([O-])=O,0,G1,B,None,None,Negative
B-1686,"InChI=1S/C5H9N3O10/c9-1-5(2-16-6(10)11,3-17-7(12)13)4-18-8(14)15/h9H,1-4H2",-1.585,OCC(CO[N+]([O-])=O)(CO[N+]([O-])=O)CO[N+]([O-])=O,0,G1,B,None,None,PureChargeSeparation
B-1687,"InChI=1S/C9H17N5O/c1-5-10-7-12-8(11-6(2)3)14-9(13-7)15-4/h6H,5H2,1-4H3,(H2,10,11,12,13,14)",-2.0696,CCNC1=NC(NC(C)C)=NC(OC)=N1,0.01831672,G5,B,None,None,Uncharged
B-1688,"InChI=1S/C5H5N/c1-2-3-4-5-6/h2-4H,1H2/b4-3-",-0.7221,C=CC=CC#N,0,G1,B,None,None,Uncharged
B-1690,"InChI=1S/C5H11NS2/c1-6(2)5-3-7-8-4-5/h5H,3-4H2,1-2H3",-1.873,C[NH+](C)C1CSSC1,0,G1,B,None,None,Positive
B-1691,"InChI=1S/C10H19O7PS/c1-5-16-9(11)7-8(10(12)17-6-2)19-18(13,14-3)15-4/h8H,5-7H2,1-4H3",-1.6223,CCOC(=O)CC(SP(=O)(OC)OC)C(=O)OCC,0.85885,G2,B,None,None,Uncharged
B-1692,"InChI=1S/C7H16S/c1-2-3-4-5-6-7-8/h8H,2-7H2,1H3",-4.1549,CCCCCCCS,0,G1,B,None,None,Uncharged
B-1693,"InChI=1S/C7H14N2O3S/c1-7(2,13(4)11)5-9-12-6(10)8-3/h5H,1-4H3,(H,8,10)/b9-5+",-0.8673,CNC(=O)ON=CC(C)(C)S(C)=O,0,G1,B,None,None,Uncharged
B-1694,"InChI=1S/C7H14N2O4S/c1-7(2,14(4,11)12)5-9-13-6(10)8-3/h5H,1-4H3,(H,8,10)/b9-5+",-1.3469,CNC(=O)ON=CC(C)(C)S(C)(=O)=O,0,G1,B,None,None,Uncharged
B-1695,"InChI=1S/C2H2Cl2F2/c3-1-2(4,5)6/h1H2",-2.2007,FC(F)(Cl)CCl,0,G1,B,None,None,Uncharged
B-1696,"InChI=1S/C11H24O/c1-3-4-5-6-7-8-9-10-11(2)12/h11-12H,3-10H2,1-2H3",-2.9418,CCCCCCCCCC(C)O,0,G1,B,None,None,Uncharged
B-1697,"InChI=1S/C8H18O/c1-8(2)6-4-3-5-7-9/h8-9H,3-7H2,1-2H3",-2.3038,CC(C)CCCCCO,0,G1,B,None,None,Uncharged
B-1698,"InChI=1S/C16H16N2/c1-9-7-17-15-13(11(9)3)5-6-14-12(4)10(2)8-18-16(14)15/h5-8H,1-4H3",-5.1939,CC1=C(C)C2=C(N=C1)C1=C(C=C2)C(C)=C(C)C=N1,0,G1,B,None,None,Uncharged
B-1699,"InChI=1S/C19H21NO/c1-20(2)13-7-11-17-16-9-4-3-8-15(16)14-21-19-12-6-5-10-18(17)19/h3-6,8-12H,7,13-14H2,1-2H3/b17-11+",-3.9469,C[NH+](C)CCC=C1C2=CC=CC=C2COC2=CC=CC=C12,0,G1,B,None,None,Positive
B-1700,"InChI=1S/C8H16/c1-2-8-6-4-3-5-7-8/h8H,2-7H2,1H3",-4.2507,CCC1CCCCC1,0,G1,B,None,None,Uncharged
B-1701,"InChI=1S/C10H16O/c1-9(2)6-4-7(9)10(3)8(5-6)11-10/h6-8H,4-5H2,1-3H3",-2.5937,CC12OC1CC1CC2C1(C)C,0,G1,B,None,None,Uncharged
B-1702,"InChI=1S/C10H10O2/c1-10(2)8-6-4-3-5-7(8)9(11)12-10/h3-6H,1-2H3",-1.8684,CC1(C)OC(=O)C2=CC=CC=C12,0,G1,B,None,None,Uncharged
B-1703,"InChI=1S/C12H10N2O/c15-12-8-6-11(7-9-12)14-13-10-4-2-1-3-5-10/h1-9,13H",-3.3429,OC1=CC=C(C=C1)N=NC1=CC=CC=C1,0,G1,B,None,None,Uncharged
B-1705,"InChI=1S/C7H3Br2NO/c8-5-1-4(3-10)2-6(9)7(5)11/h1-2,11H",-3.3284,[O-]C1=C(Br)C=C(C=C1Br)C#N,0,G1,B,None,None,Negative
B-1706,"InChI=1S/C15H17Br2NO2/c1-2-3-4-5-6-7-14(19)20-15-12(16)8-11(10-18)9-13(15)17/h8-9H,2-7H2,1H3",-6.7023,CCCCCCCC(=O)OC1=C(Br)C=C(C=C1Br)C#N,0,G1,B,None,None,Uncharged
B-1707,InChI=1S/C10H6Cl2N2O/c11-8-6-13-14(10(15)9(8)12)7-4-2-1-3-5-7/h1-6H,-3.3822,ClC1=C(Cl)C(=O)N(N=C1)C1=CC=CC=C1,0,G1,B,None,None,Uncharged
B-1708,"InChI=1S/C10H8ClN3O/c11-9-8(12)6-13-14(10(9)15)7-4-2-1-3-5-7/h1-6H,12H2",-2.7436,NC1=C(Cl)C(=O)N(N=C1)C1=CC=CC=C1,0.0632,G3,B,None,None,Uncharged
B-1709,"InChI=1S/C6H3Cl2NO2/c7-3-1-2-4(8)9-5(3)6(10)11/h1-2H,(H,10,11)",-1.3884,[O-]C(=O)C1=NC(Cl)=CC=C1Cl,0.4458,G3,B,None,None,Negative
B-1710,"InChI=1S/C19H14/c1-13-12-19-16-8-3-2-6-14(16)10-11-18(19)17-9-5-4-7-15(13)17/h2-12H,1H3",-6.5715,CC1=CC2=C(C=CC3=C2C=CC=C3)C2=C1C=CC=C2,0,G1,B,None,None,Uncharged
B-1711,"InChI=1S/C3H7NO3/c1-3(2)7-4(5)6/h3H,1-2H3",-1.4593,CC(C)O[N+]([O-])=O,0,G1,B,None,None,PureChargeSeparation
B-1712,"InChI=1S/C2H3Cl2F/c1-2(3,4)5/h1H3",-2.4448,CC(F)(Cl)Cl,0,G1,B,None,None,Uncharged
B-1713,"InChI=1S/C13H10ClNOS/c1-16-9-3-4-10-13(7-9)17-12-5-2-8(14)6-11(12)15-10/h2-7,15H,1H3",-4.9787,COC1=CC=C2NC3=CC(Cl)=CC=C3SC2=C1,0,G1,B,None,None,Uncharged
B-1714,"InChI=1S/C20H28O2/c1-13(2)14-6-8-16-15(12-14)7-9-17-19(16,3)10-5-11-20(17,4)18(21)22/h6,8,12-13,17H,5,7,9-11H2,1-4H3,(H,21,22)/t17-,19-,20-/m1/s1",-4.6582,CC(C)C1=CC=C2C(CCC3C(C)(CCCC23C)C([O-])=O)=C1,0,G1,B,None,None,Negative
B-1715,"InChI=1S/C4H12N6/c1-5-6-3-10-4-8-7-2-9(1)10/h5-8H,1-4H2",-0.0128,C1NNCN2CNNCN12,0,G1,B,None,None,Uncharged
B-1716,"InChI=1S/C12H10N2O/c15-12(10-5-4-8-13-9-10)14-11-6-2-1-3-7-11/h1-9H,(H,14,15)",-3.093,O=C(NC1=CC=CC=C1)C1=CC=CN=C1,0,G1,B,None,None,Uncharged
B-1717,"InChI=1S/C6H5N3S/c7-4-1-2-6-5(3-4)8-9-10-6/h1-3H,7H2",-1.3045,NC1=CC=C2SN=NC2=C1,0,G1,B,None,None,Uncharged
B-1718,InChI=1S/CHNS.H3N/c2-1-3;/h3H;1H3,0.9178,[S-]C#N,0.1003392,G3,B,None,None,Negative
B-1719,"InChI=1S/C7H6Cl2O/c8-6-2-1-5(4-10)7(9)3-6/h1-3,10H,4H2",-2.248,OCC1=CC=C(Cl)C=C1Cl,0,G1,B,None,None,Uncharged
B-1720,InChI=1S/CH2ClNO2/c2-1-3(4)5/h1H2,-0.281,[O-][N+](=O)CCl,0,G1,B,None,None,PureChargeSeparation
B-1721,"InChI=1S/C3H6N2O2/c1-3(5-7)2-4-6/h2,5,7H,1H3/b3-2+",-0.3462,CC(C=NO)=NO,0,G1,B,None,None,Uncharged
B-1722,"InChI=1S/C7H6Cl2O/c8-6-2-1-5(4-10)3-7(6)9/h1-3,10H,4H2",-2.0439,OCC1=CC=C(Cl)C(Cl)=C1,0,G1,B,None,None,Uncharged
B-1723,"InChI=1S/C8H18O3P/c1-3-5-7-10-12(9)11-8-6-4-2/h3-8H2,1-2H3/q+1",-1.4249,CCCCO[P+](=O)OCCCC,0,G1,B,None,None,Positive
B-1725,InChI=1S/C10H6Cl2/c11-9-5-6-10(12)8-4-2-1-3-7(8)9/h1-6H,-5.3576,ClC1=CC=C(Cl)C2=CC=CC=C12,0.2212,G3,B,None,None,Uncharged
B-1726,"InChI=1S/C10H14ClN3OS/c1-3-14(4-2)10(15)7-16-9-6-5-8(11)12-13-9/h5-6H,3-4,7H2,1-2H3",-1.7156,CCN(CC)C(=O)CSC1=CC=C(Cl)N=N1,0,G1,B,None,None,Uncharged
B-1727,InChI=1S/C12H7Cl2NO3/c13-8-1-6-12(11(14)7-8)18-10-4-2-9(3-5-10)15(16)17/h1-7H,-5.4535,[O-][N+](=O)C1=CC=C(OC2=CC=C(Cl)C=C2Cl)C=C1,0,G1,B,None,None,PureChargeSeparation
B-1728,InChI=1S/C12H6Cl3NO3/c13-7-5-10(14)12(11(15)6-7)19-9-3-1-8(2-4-9)16(17)18/h1-6H,-5.6201,[O-][N+](=O)C1=CC=C(OC2=C(Cl)C=C(Cl)C=C2Cl)C=C1,0,G1,B,None,None,PureChargeSeparation
B-1729,"InChI=1S/C8H18O/c1-4-6-8(9)7(3)5-2/h7-9H,4-6H2,1-3H3",-1.8406,CCCC(O)C(C)CC,0,G1,B,None,None,Uncharged
B-1730,"InChI=1S/C29H31F2N3O/c30-24-12-8-22(9-13-24)27(23-10-14-25(31)15-11-23)7-4-18-33-19-16-29(17-20-33)28(35)32-21-34(29)26-5-2-1-3-6-26/h1-3,5-6,8-15,27H,4,7,16-21H2,(H,32,35)",-4.6772,FC1=CC=C(C=C1)C(CCC[NH+]1CCC2(CC1)N(CNC2=O)C1=CC=CC=C1)C1=CC=C(F)C=C1,0,G1,B,None,None,Positive
B-1731,"InChI=1S/C11H20O4/c12-10(13)8-6-4-2-1-3-5-7-9-11(14)15/h1-9H2,(H,12,13)(H,14,15)",-1.6274,[O-]C(=O)CCCCCCCCCC([O-])=O,0,G1,B,None,None,Negative
B-1732,InChI=1S/C10H6Cl4O4/c1-17-9(15)3-5(11)7(13)4(10(16)18-2)8(14)6(3)12/h1-2H3,-5.8221,COC(=O)C1=C(Cl)C(Cl)=C(C(=O)OC)C(Cl)=C1Cl,0,G1,B,None,None,Uncharged
B-1734,"InChI=1S/C10H11Cl3O2/c1-6(14)4-15-5-7-8(11)2-3-9(12)10(7)13/h2-3,6,14H,4-5H2,1H3",-3.5673,CC(O)COCC1=C(Cl)C=CC(Cl)=C1Cl,0,G1,B,None,None,Uncharged
B-1735,"InChI=1S/C13H16ClNO.ClH/c1-15-13(9-5-4-8-12(13)16)10-6-2-3-7-11(10)14;/h2-3,6-7,15H,4-5,8-9H2,1H3;1H",-0.137,C[NH2+]C1(CCCCC1=O)C1=CC=CC=C1Cl,0,G1,B,None,None,Positive
B-1736,"InChI=1S/C15H15ClO/c1-10-8-14(17)13(11(2)15(10)16)9-12-6-4-3-5-7-12/h3-8,17H,9H2,1-2H3",-4.3009,CC1=CC(O)=C(CC2=CC=CC=C2)C(C)=C1Cl,0,G1,B,None,None,Uncharged
B-1737,"InChI=1S/C6H12N2O4/c9-3-1-7-5(11)6(12)8-2-4-10/h9-10H,1-4H2,(H,7,11)(H,8,12)",-0.1124,OCCNC(=O)C(=O)NCCO,0,G1,B,None,None,Uncharged
B-1738,"InChI=1S/C11H15N5O5/c12-9-6-10(14-3-13-9)16(4-15-6)11(2-18)8(20)7(19)5(1-17)21-11/h3-5,7-8,17-20H,1-2H2,(H2,12,13,14)/t5-,7-,8-,11-/m1/s1",-1.5701,NC1=C2N=CN(C2=NC=N1)C1(CO)OC(CO)C(O)C1O,0,G1,B,None,None,Uncharged
B-1739,"InChI=1S/C9H10O3/c1-7-4-2-3-5-8(7)12-6-9(10)11/h2-5H,6H2,1H3,(H,10,11)",-2.4424,CC1=CC=CC=C1OCC([O-])=O,0,G1,B,None,None,Negative
B-1740,"InChI=1S/C8H7NO5/c10-8(11)5-14-7-4-2-1-3-6(7)9(12)13/h1-4H,5H2,(H,10,11)",-2.016,[O-]C(=O)COC1=CC=CC=C1[N+]([O-])=O,0,G1,B,None,None,Negative
B-1741,"InChI=1S/C8H18O2S/c1-7(2,3)11(9,10)8(4,5)6/h1-6H3",-1.2177,CC(C)(C)S(=O)(=O)C(C)(C)C,0,G1,B,None,None,Uncharged
B-1742,"InChI=1S/C3Cl6/c4-1(2(5)6)3(7,8)9",-4.1651,ClC(Cl)=C(Cl)C(Cl)(Cl)Cl,0,G1,B,None,None,Uncharged
B-1743,InChI=1S/C5H3BrO2/c6-5-2-1-4(3-7)8-5/h1-3H,-1.544,BrC1=CC=C(O1)C=O,0,G1,B,None,None,Uncharged
B-1744,"InChI=1S/C10H18ClN5/c1-5-16(6-2)10-14-8(11)13-9(15-10)12-7(3)4/h7H,5-6H2,1-4H3,(H,12,13,14,15)",-3.7849,CCN(CC)C1=NC(Cl)=NC(NC(C)C)=N1,0,G1,B,None,None,Uncharged
B-1745,"InChI=1S/C6H6O3/c1-4-2-3-5(9-4)6(7)8/h2-3H,1H3,(H,7,8)",-0.8243,CC1=CC=C(O1)C([O-])=O,0,G1,B,None,None,Negative
B-1746,"InChI=1S/C7H8O3/c1-9-5-7-3-2-6(4-8)10-7/h2-4H,5H2,1H3",-0.4992,COCC1=CC=C(O1)C=O,0.238247863,G3,B,None,None,Uncharged
B-1748,"InChI=1S/C6H3Cl3N2O2/c7-1-3(10)2(8)5(9)11-4(1)6(12)13/h(H2,10,11)(H,12,13)",-2.7494,NC1=C(Cl)C(Cl)=NC(C([O-])=O)=C1Cl,0.0097,G3,B,None,None,Negative
B-1749,"InChI=1S/C13H19N3O4/c1-4-6-14(7-5-2)13-11(15(17)18)8-10(3)9-12(13)16(19)20/h8-9H,4-7H2,1-3H3",-2.9663,CCCN(CCC)C1=C(C=C(C)C=C1[N+]([O-])=O)[N+]([O-])=O,0,G1,B,None,None,PureChargeSeparation
B-1750,"InChI=1S/C17H27NO2/c1-11-9-12(16(2,3)4)14(20-15(19)18-8)13(10-11)17(5,6)7/h9-10H,1-8H3,(H,18,19)",-4.598,CNC(=O)OC1=C(C=C(C)C=C1C(C)(C)C)C(C)(C)C,0,G1,B,None,None,Uncharged
B-1752,"InChI=1S/C12H9NOS/c14-8-5-6-10-12(7-8)15-11-4-2-1-3-9(11)13-10/h1-7,13-14H",-2.5748,OC1=CC=C2NC3=CC=CC=C3SC2=C1,0,G1,B,None,None,Uncharged
B-1753,"InChI=1S/C9H8Cl2O3/c1-13-9(12)5-14-8-3-2-6(10)4-7(8)11/h2-4H,5H2,1H3",-2.9596,COC(=O)COC1=CC=C(Cl)C=C1Cl,0,G1,B,None,None,Uncharged
B-1754,"InChI=1S/C10H9Cl3O3/c1-2-15-10(14)5-16-9-4-7(12)6(11)3-8(9)13/h3-4H,2,5H2,1H3",-4.8493,CCOC(=O)COC1=CC(Cl)=C(Cl)C=C1Cl,0,G1,B,None,None,Uncharged
B-1755,"InChI=1S/C16H22Cl2O3/c1-2-3-4-5-6-7-10-20-16(19)12-21-15-9-8-13(17)11-14(15)18/h8-9,11H,2-7,10,12H2,1H3",-7.0217,CCCCCCCCOC(=O)COC1=CC=C(Cl)C=C1Cl,0,G1,B,None,None,Uncharged
B-1756,"InChI=1S/C11H12Cl2O3/c1-2-5-15-11(14)7-16-10-4-3-8(12)6-9(10)13/h3-4,6H,2,5,7H2,1H3",-4.2502,CCCOC(=O)COC1=CC=C(Cl)C=C1Cl,0,G1,B,None,None,Uncharged
B-1757,"InChI=1S/C10H12O3/c1-13-9-5-2-8(3-6-9)4-7-10(11)12/h2-3,5-6H,4,7H2,1H3,(H,11,12)",-2.2144,COC1=CC=C(CCC([O-])=O)C=C1,0,G1,B,None,None,Negative
B-1758,"InChI=1S/C14H18Cl2O4/c1-2-3-6-18-7-8-19-14(17)10-20-13-5-4-11(15)9-12(13)16/h4-5,9H,2-3,6-8,10H2,1H3",-4.4276,CCCCOCCOC(=O)COC1=CC=C(Cl)C=C1Cl,0,G1,B,None,None,Uncharged
B-1761,"InChI=1S/C9H9N3OS/c1-10-8(13)12-9-11-6-4-2-3-5-7(6)14-9/h2-5H,1H3,(H2,10,11,12,13)",-4.2373,CNC(=O)NC1=NC2=CC=CC=C2S1,0,G1,B,None,None,Uncharged
B-1762,"InChI=1S/CClN3O6/c2-1(3(6)7,4(8)9)5(10)11",-1.9259,[O-][N+](=O)C(Cl)([N+]([O-])=O)[N+]([O-])=O,0,G1,B,None,None,PureChargeSeparation
B-1763,"InChI=1S/C10H18O2/c1-7(2)8-4-5-10(3,12)9(11)6-8/h8-9,11-12H,1,4-6H2,2-3H3",-0.2311,CC(=C)C1CCC(C)(O)C(O)C1,0,G1,B,None,None,Uncharged
B-1764,"InChI=1S/C6H14OS2/c1-3-5-8-9(7)6-4-2/h3-6H2,1-2H3",-0.9199,CCCSS(=O)CCC,0,G1,B,None,None,Uncharged
B-1765,"InChI=1S/C9H8O5/c1-14-7-5(8(10)11)3-2-4-6(7)9(12)13/h2-4H,1H3,(H,10,11)(H,12,13)",-2.2926,COC1=C(C=CC=C1C([O-])=O)C([O-])=O,0,G1,B,None,None,Negative
B-1766,"InChI=1S/C9H9NO4/c1-2-9(11)14-8-5-3-7(4-6-8)10(12)13/h3-6H,2H2,1H3",-3.8925,CCC(=O)OC1=CC=C(C=C1)[N+]([O-])=O,0,G1,B,None,None,PureChargeSeparation
B-1767,"InChI=1S/C11H13NO4/c1-2-3-4-11(13)16-10-7-5-9(6-8-10)12(14)15/h5-8H,2-4H2,1H3",-4.3945,CCCCC(=O)OC1=CC=C(C=C1)[N+]([O-])=O,0,G1,B,None,None,PureChargeSeparation
B-1769,"InChI=1S/C7H14N2O3/c1-4(2)6(7(11)12)9-5(10)3-8/h4,6H,3,8H2,1-2H3,(H,9,10)(H,11,12)",0.4579,CC(C)C(NC(=O)C[NH3+])C([O-])=O,0,G1,B,None,None,Zwitterion
B-1770,"InChI=1S/C10H20N2O4/c13-7-5-11-9(15)3-1-2-4-10(16)12-6-8-14/h13-14H,1-8H2,(H,11,15)(H,12,16)",0.4121,OCCNC(=O)CCCCC(=O)NCCO,0,G1,B,None,None,Uncharged
B-1771,"InChI=1S/C9H9Cl2NO2/c1-12-9(13)14-5-6-2-3-7(10)8(11)4-6/h2-4H,5H2,1H3,(H,12,13)",-3.1389,CNC(=O)OCC1=CC=C(Cl)C(Cl)=C1,0,G1,B,None,None,Uncharged
B-1772,"InChI=1S/C11H10ClNO2/c1-3-8(2)15-11(14)13-10-6-4-5-9(12)7-10/h1,4-8H,2H3,(H,13,14)",-2.6172,CC(OC(=O)NC1=CC=CC(Cl)=C1)C#C,0,G1,B,None,None,Uncharged
B-1773,"InChI=1S/C7H7BrN2O/c8-5-1-3-6(4-2-5)10-7(9)11/h1-4H,(H3,9,10,11)",-1.6336,NC(=O)NC1=CC=C(Br)C=C1,0,G1,B,None,None,Uncharged
B-1774,"InChI=1S/C8H9Br/c1-2-7-5-3-4-6-8(7)9/h3-6H,2H2,1H3",-3.6702,CCC1=CC=CC=C1Br,0,G1,B,None,None,Uncharged
B-1775,"InChI=1S/C15H15ClN2O2/c1-18(2)15(19)17-12-5-9-14(10-6-12)20-13-7-3-11(16)4-8-13/h3-10H,1-2H3,(H,17,19)",-4.8953,CN(C)C(=O)NC1=CC=C(OC2=CC=C(Cl)C=C2)C=C1,0,G1,B,None,None,Uncharged
B-1776,"InChI=1S/C14H20N2O/c1-11-7-5-6-10-13(11)16-14(17)15-12-8-3-2-4-9-12/h2-4,8-9,11,13H,5-7,10H2,1H3,(H2,15,16,17)",-4.1108,CC1CCCCC1NC(=O)NC1=CC=CC=C1,0,G1,B,None,None,Uncharged
B-1777,"InChI=1S/C7H6Cl2O/c1-10-6-4-2-3-5(8)7(6)9/h2-4H,1H3",-3.309,COC1=CC=CC(Cl)=C1Cl,0,G1,B,None,None,Uncharged
B-1778,"InChI=1S/C7H6Cl2O/c1-10-7-5(8)3-2-4-6(7)9/h2-4H,1H3",-3.1019,COC1=C(Cl)C=CC=C1Cl,0,G1,B,None,None,Uncharged
B-1779,"InChI=1S/C9H8N2O3/c10-9(12)6-5-7-3-1-2-4-8(7)11(13)14/h1-6H,(H2,10,12)",-1.2837,NC(=O)C=CC1=CC=CC=C1[N+]([O-])=O,0,G1,B,None,None,PureChargeSeparation
B-1780,"InChI=1S/C6H6N4/c1-4-5-6(9-2-7-4)10-3-8-5/h2-3H,1H3,(H,7,8,9,10)",0.1735,CC1=C2NC=NC2=NC=N1,0,G1,B,None,None,Uncharged
B-1781,"InChI=1S/C11H23NOS/c1-6-14-11(13)12(7-9(2)3)8-10(4)5/h9-10H,6-8H2,1-5H3",-3.684,CCSC(=O)N(CC(C)C)CC(C)C,0,G1,B,None,None,Uncharged
B-1782,"InChI=1S/C9H8N2OS/c12-8-6-10-9(13)11(8)7-4-2-1-3-5-7/h1-5H,6H2,(H,10,13)",-3.2425,O=C1CNC(=S)N1C1=CC=CC=C1,0,G1,B,None,None,Uncharged
B-1783,"InChI=1S/C10H23N/c1-2-3-4-5-6-7-8-9-10-11/h2-11H2,1H3",-2.4564,CCCCCCCCCC[NH3+],0,G1,B,None,None,Positive
B-1784,"InChI=1S/C11H14O2/c1-2-13-11(12)9-8-10-6-4-3-5-7-10/h3-7H,2,8-9H2,1H3",-2.9086,CCOC(=O)CCC1=CC=CC=C1,0,G1,B,None,None,Uncharged
B-1786,"InChI=1S/C11H16N2O2/c1-8-7-9(15-11(14)12-2)5-6-10(8)13(3)4/h5-7H,1-4H3,(H,12,14)",-2.3572,CNC(=O)OC1=CC=C(N(C)C)C(C)=C1,0,G1,B,None,None,Uncharged
B-1787,"InChI=1S/C11H15NO2S/c1-7-5-9(14-11(13)12-3)6-8(2)10(7)15-4/h5-6H,1-4H3,(H,12,13)",-3.9214,CNC(=O)OC1=CC(C)=C(SC)C(C)=C1,0.2158,G3,B,None,None,Uncharged
B-1788,"InChI=1S/C8H16/c1-2-5-8-6-3-4-7-8/h8H,2-7H2,1H3",-4.7404,CCCC1CCCC1,0,G1,B,None,None,Uncharged
B-1789,"InChI=1S/C3H7NO2/c1-2(5)3(4)6/h2,5H,1H3,(H2,4,6)",0.9435,CC(O)C(N)=O,0,G1,B,None,None,Uncharged
B-1791,"InChI=1S/C11H20O4/c1-3-14-10(12)8-6-5-7-9-11(13)15-4-2/h3-9H2,1-2H3",-2.0408,CCOC(=O)CCCCCC(=O)OCC,0.0139,G3,B,None,None,Uncharged
B-1792,"InChI=1S/C12H22O4/c1-3-15-11(13)9-7-5-6-8-10-12(14)16-4-2/h3-10H2,1-2H3",-2.5304,CCOC(=O)CCCCCCC(=O)OCC,0,G1,B,None,None,Uncharged
B-1793,InChI=1S/C10H6Cl2/c11-9-6-5-7-3-1-2-4-8(7)10(9)12/h1-6H,-6.1611,ClC1=C(Cl)C2=CC=CC=C2C=C1,0,G1,B,None,None,Uncharged
B-1794,InChI=1S/C10H6Cl2/c11-8-5-1-3-7-4-2-6-9(12)10(7)8/h1-6H,-5.7963,ClC1=CC=CC2=CC=CC(Cl)=C12,0,G1,B,None,None,Uncharged
B-1796,"InChI=1S/C12H10N2O2/c15-10-6-7-11(12(16)8-10)14-13-9-4-2-1-3-5-9/h1-8,13,16H/b14-11+",-3.0299,[O-]C1=CC(=O)C=CC1=NNC1=CC=CC=C1,0,G1,B,None,None,Negative
B-1797,"InChI=1S/C5H11NO3/c1-3(9-2)4(6)5(7)8/h3-4H,6H2,1-2H3,(H,7,8)",0.4853,COC(C)C([NH3+])C([O-])=O,0.0063,G3,B,None,None,Zwitterion
B-1799,"InChI=1S/C17H20O2/c1-12(2)11-17(13-3-7-15(18)8-4-13)14-5-9-16(19)10-6-14/h3-10,12,17-19H,11H2,1-2H3",-3.3674,CC(C)CC(C1=CC=C(O)C=C1)C1=CC=C(O)C=C1,0,G1,B,None,None,Uncharged
B-1800,"InChI=1S/C7H12O4/c1-4(6(8)9)3-5(2)7(10)11/h4-5H,3H2,1-2H3,(H,8,9)(H,10,11)/p-2/t4-,5+",-0.4564,CC(CC(C)C([O-])=O)C([O-])=O,0,G1,B,None,None,Negative
B-1801,"InChI=1S/C14H17ClN2O3S/c15-12-6-9-8-17(10-4-2-1-3-5-10)14(18)11(9)7-13(12)21(16,19)20/h6-7,10H,1-5,8H2,(H2,16,19,20)",-4.3128,NS(=O)(=O)C1=CC2=C(CN(C3CCCCC3)C2=O)C=C1Cl,0,G1,B,None,None,Uncharged
B-1802,InChI=1S/C7H4BrNS/c8-6-2-1-3-7(4-6)9-5-10/h1-4H,-4.0851,BrC1=CC=CC(=C1)N=C=S,0,G1,B,None,None,Uncharged
B-1803,"InChI=1S/C22H28F2O5/c1-11-6-13-14-8-16(23)15-7-12(26)4-5-19(15,2)21(14,24)17(27)9-20(13,3)22(11,29)18(28)10-25/h4-5,7,11,13-14,16-17,25,27,29H,6,8-10H2,1-3H3/t11-,13+,14+,16+,17+,19+,20+,21+,22+/m1/s1",-5.6133,CC1CC2C3CC(F)C4=CC(=O)C=CC4(C)C3(F)C(O)CC2(C)C1(O)C(=O)CO,0,G1,B,None,None,Uncharged
B-1804,"InChI=1S/C12H16O2/c13-10-6-7-11(12(14)8-10)9-4-2-1-3-5-9/h6-9,13-14H,1-5H2",-2.5763,OC1=CC=C(C2CCCCC2)C(O)=C1,0,G1,B,None,None,Uncharged
B-1805,"InChI=1S/C9H8Cl6O2/c10-5-6(11)8(13)4(2-17)3(1-16)7(5,12)9(8,14)15/h3-4,16-17H,1-2H2",-3.0802,OCC1C(CO)C2(Cl)C(Cl)=C(Cl)C1(Cl)C2(Cl)Cl,0,G1,B,None,None,Uncharged
B-1806,"InChI=1S/C14H9BrO3/c15-10-7-5-9(6-8-10)13(16)11-3-1-2-4-12(11)14(17)18/h1-8H,(H,17,18)",-3.0074,[O-]C(=O)C1=CC=CC=C1C(=O)C1=CC=C(Br)C=C1,0,G1,B,None,None,Negative
B-1807,"InChI=1S/C8H15N5O/c1-4-9-6-11-7(10-5(2)3)13-8(14)12-6/h5H,4H2,1-3H3,(H3,9,10,11,12,13,14)",-4.5241,CCNC1=NC(=O)NC(NC(C)C)=N1,0,G1,B,None,None,Uncharged
B-1809,"InChI=1S/CH5AsO3.Na/c1-2(3,4)5;/h1H3,(H2,3,4,5);/q;+1/p-1",0.554,C[As](O)([O-])=O,0,G1,B,None,None,Negative
B-1810,"InChI=1S/C13H18N2O2/c16-12-10-7-4-8-11(10)14-13(17)15(12)9-5-2-1-3-6-9/h9H,1-8H2,(H,14,17)",-4.5916,O=C1NC2=C(CCC2)C(=O)N1C1CCCCC1,0,G1,B,None,None,Uncharged
B-1811,"InChI=1S/C10H9Cl2NO/c1-6(2)10(14)13-7-3-4-8(11)9(12)5-7/h3-5H,1H2,2H3,(H,13,14)",-4.4325,CC(=C)C(=O)NC1=CC=C(Cl)C(Cl)=C1,0,G1,B,None,None,Uncharged
B-1812,"InChI=1S/C11H14ClNO2/c1-3-8(2)15-11(14)13-10-6-4-5-9(12)7-10/h4-8H,3H2,1-2H3,(H,13,14)",-3.1727,CCC(C)OC(=O)NC1=CC=CC(Cl)=C1,0,G1,B,None,None,Uncharged
B-1813,"InChI=1S/C14H16O/c1-11(2)10-15-14-8-7-12-5-3-4-6-13(12)9-14/h3-9,11H,10H2,1-2H3",-5.2117,CC(C)COC1=CC2=CC=CC=C2C=C1,0.583869412,G2,B,None,None,Uncharged
B-1815,InChI=1S/C10H6Cl2/c11-9-3-1-7-2-4-10(12)6-8(7)5-9/h1-6H,-5.9217,ClC1=CC2=CC(Cl)=CC=C2C=C1,0,G1,B,None,None,Uncharged
B-1816,"InChI=1S/C9H13NO2/c1-4-12-9(11)8-6(2)5-7(3)10-8/h5,10H,4H2,1-3H3",-2.6212,CCOC(=O)C1=C(C)C=C(C)N1,0,G1,B,None,None,Uncharged
B-1817,"InChI=1S/C9H8O5/c1-14-7-3-2-5(8(10)11)4-6(7)9(12)13/h2-4H,1H3,(H,10,11)(H,12,13)",-3.1165,COC1=CC=C(C=C1C([O-])=O)C([O-])=O,0,G1,B,None,None,Negative