ID,InChI,Solubility,SMILEScurated,SD,Group,Dataset,Composition,Error,Charge
B-2551,"InChI=1S/C13H13N3O3S/c1-10(17)15-11-5-7-12(8-6-11)20(18,19)16-13-4-2-3-9-14-13/h2-9H,1H3,(H,14,16)(H,15,17)",-3.7162,CC(=O)NC1=CC=C(C=C1)S(=O)(=O)NC1=CC=CC=N1,0,G1,B,None,None,Uncharged
B-2552,"InChI=1S/C10H14N6/c1-3-5-6(4-2)14-9-7(13-5)8(11)15-10(12)16-9/h3-4H2,1-2H3,(H4,11,12,14,15,16)",-3.2671,CCC1=NC2=NC(N)=NC(N)=C2N=C1CC,0,G1,B,None,None,Uncharged
B-2553,"InChI=1S/C7H7N5/c1-8-7-11-4-5-6(12-7)10-3-2-9-5/h2-4H,1H3,(H,8,10,11,12)",-1.7124,CNC1=NC2=NC=CN=C2C=N1,0,G1,B,None,None,Uncharged
B-2554,"InChI=1S/C16H13N3O2/c1-21-13-8-11-4-3-7-18-15(11)14(9-13)19-16(20)12-5-2-6-17-10-12/h2-10H,1H3,(H,19,20)",-4.4461,COC1=CC2=CC=CN=C2C(NC(=O)C2=CC=CN=C2)=C1,0,G1,B,None,None,Uncharged
B-2555,"InChI=1S/C17H25N5O13/c18-6(8(25)5(24)3-34-16(19)32)13(29)20-7(15(30)31)11-9(26)10(27)14(35-11)22-1-4(2-23)12(28)21-17(22)33/h1,5-11,14,23-27H,2-3,18H2,(H2,19,32)(H,20,29)(H,30,31)(H,21,28,33)/t5-,6-,7-,8+,9?,10?,11+,14+/m0/s1",0.2946,NC(=O)OCC(O)C(O)C([NH3+])C(=O)NC(C1OC(C(O)C1O)N1C=C(CO)C(=O)NC1=O)C([O-])=O,0,G1,B,None,None,Zwitterion
B-2556,"InChI=1S/C8H7ClO3/c1-12-7-3-5(4-10)2-6(9)8(7)11/h2-4,11H,1H3",-2.8747,COC1=CC(C=O)=CC(Cl)=C1[O-],0,G1,B,None,None,Negative
B-2557,"InChI=1S/C8H5BrO2/c9-6-2-1-5-4-11-8(10)7(5)3-6/h1-3H,4H2",-2.6472,BrC1=CC=C2COC(=O)C2=C1,0,G1,B,None,None,Uncharged
B-2558,"InChI=1S/C9H20O/c1-5-7(3)9(10)8(4)6-2/h7-10H,5-6H2,1-4H3",-2.5108,CCC(C)C(O)C(C)CC,0,G1,B,None,None,Uncharged
B-2560,"InChI=1S/C13H10Cl2O/c14-11-7-10(13(16)12(15)8-11)6-9-4-2-1-3-5-9/h1-5,7-8,16H,6H2",-4.6399,OC1=C(Cl)C=C(Cl)C=C1CC1=CC=CC=C1,0,G1,B,None,None,Uncharged
B-2561,"InChI=1S/C8H5ClO2/c9-6-2-1-5-4-11-8(10)7(5)3-6/h1-3H,4H2",-2.4817,ClC1=CC=C2COC(=O)C2=C1,0,G1,B,None,None,Uncharged
B-2563,"InChI=1S/C13H12O3/c1-2-16-12-8-7-11(13(14)15)9-5-3-4-6-10(9)12/h3-8H,2H2,1H3,(H,14,15)",-4.1122,CCOC1=CC=C(C([O-])=O)C2=CC=CC=C12,0,G1,B,None,None,Negative
B-2564,"InChI=1S/C11H16O2/c1-3-11(2,13)10(12)9-7-5-4-6-8-9/h4-8,10,12-13H,3H2,1-2H3",-1.7244,CCC(C)(O)C(O)C1=CC=CC=C1,0,G1,B,None,None,Uncharged
B-2565,"InChI=1S/C8H15NO3/c1-5(2)4-7(8(11)12)9-6(3)10/h5,7H,4H2,1-3H3,(H,9,10)(H,11,12)/t7-/m1/s1",-1.3301,CC(C)CC(NC(C)=O)C([O-])=O,0,G1,B,None,None,Negative
B-2567,"InChI=1S/C4H9NO3/c1-8-2-3(5)4(6)7/h3H,2,5H2,1H3,(H,6,7)/t3-/m0/s1",0.6524,COCC([NH3+])C([O-])=O,0,G1,B,None,None,Zwitterion
B-2568,"InChI=1S/C4H3BrN2O/c5-3-1-6-2-7-4(3)8/h1-2H,(H,6,7,8)",-0.4471,BrC1=CN=CNC1=O,0,G1,B,None,None,Uncharged
B-2569,"InChI=1S/C6H3ClN2O2/c7-5-1-4(10)3(2-8)6(11)9-5/h1H,(H2,9,10,11)",-1.2319,OC1=C(C#N)C(=O)[N-]C(Cl)=C1,0,G1,B,None,None,Negative
B-2570,"InChI=1S/C19H26O6/c1-11-5-4-6-14(10-21)8-16-17(13(3)19(23)25-16)15(7-11)24-18(22)12(2)9-20/h5,8,12,15-17,20-21H,3-4,6-7,9-10H2,1-2H3/b11-5+,14-8-/t12?,15-,16+,17+/m0/s1",-2.2436,CC(CO)C(=O)OC1CC(C)=CCCC(CO)=CC2OC(=O)C(=C)C12,0,G1,B,None,None,Uncharged
B-2571,"InChI=1S/C5H13N/c1-4-6-5(2)3/h5-6H,4H2,1-3H3",1.0597,CC[NH2+]C(C)C,0,G1,B,None,None,Positive
B-2572,InChI=1S/C10H4Cl4/c11-7-5-3-1-2-4-6(5)8(12)10(14)9(7)13/h1-4H,-7.7954,ClC1=C(Cl)C2=CC=CC=C2C(Cl)=C1Cl,0,G1,B,None,None,Uncharged
B-2573,"InChI=1S/C19H31NO2/c1-2-3-4-5-6-7-8-9-10-11-16-22-19(21)17-12-14-18(20)15-13-17/h12-15H,2-11,16,20H2,1H3",-7.8,CCCCCCCCCCCCOC(=O)C1=CC=C(N)C=C1,0,G1,B,None,None,Uncharged
B-2574,"InChI=1S/C11H16N4O4/c1-2-3-4-7-14(11(12)16)13-8-9-5-6-10(19-9)15(17)18/h5-6,8H,2-4,7H2,1H3,(H2,12,16)",-2.8971,CCCCCN(N=CC1=CC=C(O1)[N+]([O-])=O)C(N)=O,0,G1,B,None,None,PureChargeSeparation
B-2575,"InChI=1S/C10H9Cl3/c1-8(7-10(11,12)13)9-5-3-2-4-6-9/h2-6H,1,7H2",-4.2822,ClC(Cl)(Cl)CC(=C)C1=CC=CC=C1,0,G1,B,None,None,Uncharged
B-2576,"InChI=1S/C21H19NO4/c1-14-17(13-21(24)25)18-12-16(26-2)9-10-19(18)22(14)20(23)11-8-15-6-4-3-5-7-15/h3-12H,13H2,1-2H3,(H,24,25)/b11-8+",-5.5433,COC1=CC=C2N(C(=O)C=CC3=CC=CC=C3)C(C)=C(CC([O-])=O)C2=C1,0,G1,B,None,None,Negative
B-2577,"InChI=1S/C9H21O4P/c1-4-7-8-9-13-14(10,11-5-2)12-6-3/h4-9H2,1-3H3",-1.4757,CCCCCOP(=O)(OCC)OCC,0,G1,B,None,None,Uncharged
B-2579,"InChI=1S/C6H14O/c1-5(7)6(2,3)4/h5,7H,1-4H3",-0.6238,CC(O)C(C)(C)C,0,G1,B,None,None,Uncharged
B-2580,"InChI=1S/C8H18O/c1-3-5-6-7-8(9)4-2/h8-9H,3-7H2,1-2H3",-2.0171,CCCCCC(O)CC,0.16184479,G5,B,None,None,Uncharged
B-2581,"InChI=1S/C6H15O4PS3/c1-4-14(7,8)6-5-13-11(12,9-2)10-3/h4-6H2,1-3H3",-2.5415,CCS(=O)(=O)CCSP(=S)(OC)OC,0,G1,B,None,None,Uncharged
B-2582,"InChI=1S/C10H22O4/c1-8(11)5-13-10(3)7-14-9(2)6-12-4/h8-11H,5-7H2,1-4H3",0.6855,COCC(C)OCC(C)OCC(C)O,0,G1,B,None,None,Uncharged
B-2584,"InChI=1S/C11H15NO2/c1-3-8-14-11-6-4-10(5-7-11)12-9(2)13/h4-7H,3,8H2,1-2H3,(H,12,13)",-3.0557,CCCOC1=CC=C(NC(C)=O)C=C1,0,G1,B,None,None,Uncharged
B-2585,"InChI=1S/C11H18O2/c1-10(2)8-4-5-11(10,3)9(13)7(8)6-12/h7-8,12H,4-6H2,1-3H3",-0.215,CC1(C)C2CCC1(C)C(=O)C2CO,0,G1,B,None,None,Uncharged
B-2586,"InChI=1S/C9H12N2O/c1-7-5-3-4-6-8(7)11(2)9(10)12/h3-6H,1-2H3,(H2,10,12)",-0.4032,CN(C(N)=O)C1=CC=CC=C1C,0,G1,B,None,None,Uncharged
B-2587,"InChI=1S/C6H13NO3/c1-2-3-4-5-6-10-7(8)9/h2-6H2,1H3",-3.1265,CCCCCCO[N+]([O-])=O,0,G1,B,None,None,PureChargeSeparation
B-2588,"InChI=1S/C10H14N2O/c1-3-12(10(11)13)9-7-5-4-6-8(9)2/h4-7H,3H2,1-2H3,(H2,11,13)",-0.2096,CCN(C(N)=O)C1=CC=CC=C1C,0,G1,B,None,None,Uncharged
B-2589,"InChI=1S/C6H6N2O4/c9-4(10)1-3-2-7-6(12)8-5(3)11/h2H,1H2,(H,9,10)(H2,7,8,11,12)",-1.6287,[O-]C(=O)CC1=CNC(=O)NC1=O,0,G1,B,None,None,Negative
B-2590,"InChI=1S/C14H22O2/c1-3-10-14(16,11-4-2)13(15)12-8-6-5-7-9-12/h5-9,13,15-16H,3-4,10-11H2,1-2H3",-2.648,CCCC(O)(CCC)C(O)C1=CC=CC=C1,0,G1,B,None,None,Uncharged
B-2591,"InChI=1S/C16H26O2/c1-3-5-12-16(18,13-6-4-2)15(17)14-10-8-7-9-11-14/h7-11,15,17-18H,3-6,12-13H2,1-2H3",-3.2225,CCCCC(O)(CCCC)C(O)C1=CC=CC=C1,0,G1,B,None,None,Uncharged
B-2592,"InChI=1S/C9H13N/c1-6-5-7(2)10-9(4)8(6)3/h5H,1-4H3",-1.3069,CC1=CC(C)=C(C)C(C)=[NH+]1,0,G1,B,None,None,Positive
B-2593,"InChI=1S/C41H64O14/c1-19-36(47)28(42)15-34(50-19)54-38-21(3)52-35(17-30(38)44)55-37-20(2)51-33(16-29(37)43)53-24-8-10-39(4)23(13-24)6-7-26-27(39)14-31(45)40(5)25(9-11-41(26,40)48)22-12-32(46)49-18-22/h12,19-21,23-31,33-38,42-45,47-48H,6-11,13-18H2,1-5H3/t19-,20-,21-,23-,24+,25-,26-,27+,28+,29+,30+,31-,33+,34+,35+,36-,37-,38-,39+,40+,41+/m1/s1",-4.0811,CC1OC(CC(O)C1O)OC1C(O)CC(OC2C(O)CC(OC3CCC4(C)C(CCC5C4CC(O)C4(C)C(CCC54O)C4=CC(=O)OC4)C3)OC2C)OC1C,0,G1,B,None,None,Uncharged
B-2594,"InChI=1S/C9H7Cl5N2O/c10-6-2-1-5(3-7(6)11)16-8(15-4-17)9(12,13)14/h1-4,8,16H,(H,15,17)",-3.3228,ClC1=CC=C(NC(NC=O)C(Cl)(Cl)Cl)C=C1Cl,0,G1,B,None,None,Uncharged
B-2595,"InChI=1S/C2H2N2S3/c5-1-3-2(6)7-4-1/h(H2,3,4,5,6)",-1.7618,S=C1NSC(=S)N1,0,G1,B,None,None,Uncharged
B-2597,"InChI=1S/C18H26O/c1-11-8-16-15(9-14(11)13(3)19)17(4,5)10-12(2)18(16,6)7/h8-9,12H,10H2,1-7H3",-5.3154,CC1CC(C)(C)C2=CC(C(C)=O)=C(C)C=C2C1(C)C,0,G1,B,None,None,Uncharged
B-2598,"InChI=1S/C8H5NO6/c10-7(11)4-2-1-3-5(8(12)13)6(4)9(14)15/h1-3H,(H,10,11)(H,12,13)",-1.9901,[O-]C(=O)C1=CC=CC(C([O-])=O)=C1[N+]([O-])=O,0,G1,B,None,None,Negative
B-2599,"InChI=1S/C12H12ClNO/c1-3-10(2)14(12(15)9-13)11-7-5-4-6-8-11/h1,4-8,10H,9H2,2H3",-2.6468,CC(C#C)N(C(=O)CCl)C1=CC=CC=C1,0,G1,B,None,None,Uncharged
B-2600,"InChI=1S/C5H11ClO/c1-4(6)5(2,3)7/h4,7H,1-3H3",-0.2926,CC(Cl)C(C)(C)O,0,G1,B,None,None,Uncharged
B-2601,"InChI=1S/C12H8N2O5/c15-12-6-9(8-4-2-1-3-5-8)10(13(16)17)7-11(12)14(18)19/h1-7,15H",-4.4611,[O-]C1=CC(C2=CC=CC=C2)=C(C=C1[N+]([O-])=O)[N+]([O-])=O,0,G1,B,None,None,Negative
B-2602,"InChI=1S/C6H12NO3PS2/c1-3-9-11(8,10-4-2)7-6-12-5-13-6/h3-5H2,1-2H3",-0.6835,CCOP(=O)(OCC)N=C1SCS1,0,G1,B,None,None,Uncharged
B-2603,"InChI=1S/C9H6N2S3/c10-5-12-6-13-9-11-7-3-1-2-4-8(7)14-9/h1-4H,6H2",-3.2803,N#CSCSC1=NC2=CC=CC=C2S1,0,G1,B,None,None,Uncharged
B-2604,"InChI=1S/C8H18O/c1-4-5-8(9)6-7(2)3/h7-9H,4-6H2,1-3H3",-1.9079,CCCC(O)CC(C)C,0,G1,B,None,None,Uncharged
B-2605,"InChI=1S/C7H4BrClO2/c8-4-1-2-6(9)5(3-4)7(10)11/h1-3H,(H,10,11)/p-1",-1.952,[O-]C(=O)C1=CC(Br)=CC=C1Cl,0,G1,B,None,None,Negative
B-2606,"InChI=1S/C9H9NO2/c1-10-7-4-2-3-5-8(7)12-6-9(10)11/h2-5H,6H2,1H3",-2.1445,CN1C(=O)COC2=CC=CC=C12,0,G1,B,None,None,Uncharged
B-2607,"InChI=1S/C10H7Cl5O2/c1-5(16)17-9(10(13,14)15)6-2-3-7(11)8(12)4-6/h2-4,9H,1H3",-3.8279,CC(=O)OC(C1=CC=C(Cl)C(Cl)=C1)C(Cl)(Cl)Cl,0,G1,B,None,None,Uncharged
B-2608,"InChI=1S/C8H19NO2/c1-3-7(10)5-9-6-8(11)4-2/h7-11H,3-6H2,1-2H3",0.7925,CCC(O)C[NH2+]CC(O)CC,0,G1,B,None,None,Positive
B-2609,"InChI=1S/C5H11NO3/c1-3-4-5(2)9-6(7)8/h5H,3-4H2,1-2H3",-2.4809,CCCC(C)O[N+]([O-])=O,0,G1,B,None,None,PureChargeSeparation