ID,InChI,Solubility,SMILEScurated,SD,Group,Dataset,Composition,Error,Charge
B-572,"InChI=1S/C18H34O4/c1-3-5-15-21-17(19)13-11-9-7-8-10-12-14-18(20)22-16-6-4-2/h3-16H2,1-2H3",-3.8955,CCCCOC(=O)CCCCCCCCC(=O)OCCCC,1.443236982,G4,B,None,None,Uncharged
B-573,"InChI=1S/C14H26O6/c1-3-17-9-11-19-13(15)7-5-6-8-14(16)20-12-10-18-4-2/h3-12H2,1-2H3",-2.065,CCOCCOC(=O)CCCCC(=O)OCCOCC,0,G1,B,None,None,Uncharged
B-574,"InChI=1S/C6H10O/c1-3-4-5-6(2)7/h6-7H,3H2,1-2H3",-0.4121,CCC#CC(C)O,0,G1,B,None,None,Uncharged
B-575,"InChI=1S/C6H12O/c1-4-7-5-6(2)3/h4,6H,1,5H2,2-3H3",-1.5236,CC(C)COC=C,0.309883078,G3,B,None,None,Uncharged
B-578,InChI=1S/C3H6Br2/c4-2-1-3-5/h1-3H2,-2.0747,BrCCCBr,0,G1,B,None,None,Uncharged
B-580,"InChI=1S/C5H10/c1-3-5-4-2/h3,5H,4H2,1-2H3/b5-3-",-2.5384,CCC=CC,0,G1,B,UVCB,None,Uncharged
B-581,"InChI=1S/C4H11N/c1-2-3-4-5/h2-5H2,1H3",1.1359,CCCC[NH3+],0,G1,B,None,None,Positive
B-582,"InChI=1S/C3H5NO/c4-2-1-3-5/h5H,1,3H2",1.1483,OCCC#N,0,G1,B,None,None,Uncharged
B-583,"InChI=1S/C4H10S/c1-2-3-4-5/h5H,2-4H2,1H3",-2.1792,CCCCS,0,G1,B,None,None,Uncharged
B-585,"InChI=1S/C2H8N2O/c3-4-1-2-5/h4-5H,1-3H2",1.1186,[NH3+]NCCO,0,G1,B,None,None,Positive
B-586,"InChI=1S/C3H8O2/c1-5-3-2-4/h4H,2-3H2,1H3",1.1186,COCCO,0,G1,B,None,None,Uncharged
B-592,"InChI=1S/C6H12O2/c1-5(2)4-8-6(3)7/h5H,4H2,1-3H3",-1.2657,CC(C)COC(C)=O,0.043641985,G5,B,None,None,Uncharged
B-593,"InChI=1S/C4H9N3O/c1-3(2)6-7-4(5)8/h1-2H3,(H3,5,7,8)",-0.2674,CC(C)=NNC(N)=O,0,G1,B,None,None,Uncharged
B-594,"InChI=1S/C12H24O2/c1-3-5-6-7-8-9-10-11-12(13)14-4-2/h3-11H2,1-2H3",-4.1006,CCCCCCCCCC(=O)OCC,0,G1,B,None,None,Uncharged
B-595,"InChI=1S/C14H26O4/c1-3-17-13(15)11-9-7-5-6-8-10-12-14(16)18-4-2/h3-12H2,1-2H3",-3.5091,CCOC(=O)CCCCCCCCC(=O)OCC,0,G1,B,None,None,Uncharged
B-596,"InChI=1S/C6H12O2/c1-6(2)3-4-8-5-7/h5-6H,3-4H2,1-2H3",-1.5206,CC(C)CCOC=O,0.0132,G3,B,None,None,Uncharged
B-597,"InChI=1S/C5H10O3/c1-5(6)8-4-3-7-2/h3-4H2,1-2H3",0.9276,COCCOC(C)=O,0,G1,B,None,None,Uncharged
B-599,InChI=1S/C4H8Cl2/c5-3-1-2-4-6/h1-4H2,-0.92,ClCCCCCl,0,G1,B,None,None,Uncharged
B-600,"InChI=1S/C4H6Cl2/c5-3-1-2-4-6/h1-2H,3-4H2/b2-1+",-2.1675,ClCC=CCCl,0.083,G3,B,None,None,Uncharged
B-601,"InChI=1S/C5H13N/c1-2-3-4-5-6/h2-6H2,1H3",1.0597,CCCCC[NH3+],0,G1,B,None,None,Positive
B-605,"InChI=1S/C5H12S/c1-2-3-4-5-6/h6H,2-5H2,1H3",-2.8248,CCCCCS,0,G1,B,None,None,Uncharged
B-607,"InChI=1S/C4H7ClO/c1-2-6-4-3-5/h2H,1,3-4H2",-2.3951,ClCCOC=C,0,G1,B,None,None,Uncharged
B-608,"InChI=1S/C4H10O2/c1-2-6-4-3-5/h5H,2-4H2,1H3",1.0452,CCOCCO,0,G1,B,None,None,Uncharged
B-609,"InChI=1S/C4H10N2/c1-2-6-4-3-5-1/h5-6H,1-4H2",1.0648,C1C[NH2+]CCN1,0,G1,B,None,None,Positive
B-611,"InChI=1S/C4H9NO/c1-3-6-4-2-5-1/h5H,1-4H2",1.0599,C1COCC[NH2+]1,0,G1,B,None,None,Positive
B-613,"InChI=1S/C8H19N/c1-5-7(3)9-8(4)6-2/h7-9H,5-6H2,1-4H3/p+1/t7-,8+",-1.769,CCC(C)[NH2+]C(C)CC,0,G1,B,None,None,Positive
B-615,"InChI=1S/C4H6O5/c5-3(6)1-9-2-4(7)8/h1-2H2,(H,5,6)(H,7,8)",0.4927,[O-]C(=O)COCC([O-])=O,0,G1,B,None,None,Negative
B-617,"InChI=1S/C7H14O2/c1-2-3-4-5-6-7(8)9/h2-6H2,1H3,(H,8,9)",-1.6646,CCCCCCC([O-])=O,0,G1,B,None,None,Negative
B-618,"InChI=1S/C6H12O3/c1-3-8-4-5-9-6(2)7/h3-5H2,1-2H3",0.2716,CCOCCOC(C)=O,0,G1,B,None,None,Uncharged
B-620,"InChI=1S/C10H18O4/c11-9(12)7-5-3-1-2-4-6-8-10(13)14/h1-8H2,(H,11,12)(H,13,14)",-2.3059,[O-]C(=O)CCCCCCCCC([O-])=O,0.324870256,G3,B,None,None,Negative
B-621,InChI=1S/C6H12N2O8/c9-7(10)15-5-3-13-1-2-14-4-6-16-8(11)12/h1-6H2,-1.561,[O-][N+](=O)OCCOCCOCCO[N+]([O-])=O,0,G1,B,None,None,PureChargeSeparation
B-623,"InChI=1S/C4H13N3/c5-1-3-7-4-2-6/h7H,1-6H2",0.9864,[NH3+]CC[NH2+]CC[NH3+],0,G1,B,None,None,Positive
B-633,"InChI=1S/C5H12O3/c1-7-4-5-8-3-2-6/h6H,2-5H2,1H3",0.9203,COCCOCCO,0,G1,B,None,None,Uncharged
B-634,"InChI=1S/C9H20/c1-3-5-7-9-8-6-4-2/h3-9H2,1-2H3",-5.7657,CCCCCCCCC,0.05715,G3,B,None,None,Uncharged
B-637,"InChI=1S/C6H14O3/c1-2-8-5-6-9-4-3-7/h7H,2-6H2,1H3",0.8723,CCOCCOCCO,0,G1,B,None,None,Uncharged
B-638,InChI=1S/C5H10Cl2O2/c6-1-3-8-5-9-4-2-7/h1-5H2,-1.3461,ClCCOCOCCCl,0.023987079,G3,B,None,None,Uncharged
B-640,"InChI=1S/C8H16O3/c1-3-4-5-10-6-7-11-8(2)9/h3-7H2,1-2H3",-1.2504,CCCCOCCOC(C)=O,0,G1,B,None,None,Uncharged
B-643,InChI=1S/C6H12Cl2O2/c7-1-3-9-5-6-10-4-2-8/h1-6H2,-0.9955,ClCCOCCOCCCl,0,G1,B,None,None,Uncharged
B-645,"InChI=1S/C8H18O3/c1-2-3-5-10-7-8-11-6-4-9/h9H,2-8H2,1H3",0.7899,CCCCOCCOCCO,0,G1,B,None,None,Uncharged
B-646,"InChI=1S/C7H16O4/c1-9-4-5-11-7-6-10-3-2-8/h8H,2-7H2,1H3",0.7846,COCCOCCOCCO,0,G1,B,None,None,Uncharged
B-647,"InChI=1S/C8H18O3/c1-3-9-5-7-11-8-6-10-4-2/h3-8H2,1-2H3",0.7899,CCOCCOCCOCC,0,G1,B,None,None,Uncharged
B-648,"InChI=1S/C8H18O4/c1-2-10-5-6-12-8-7-11-4-3-9/h9H,2-8H2,1H3",0.749,CCOCCOCCOCCO,0,G1,B,None,None,Uncharged
B-650,"InChI=1S/C10H22O3/c1-2-3-4-5-7-12-9-10-13-8-6-11/h11H,2-10H2,1H3",-1.049,CCCCCCOCCOCCO,0,G1,B,None,None,Uncharged
B-655,"InChI=1S/C20H42/c1-3-5-7-9-11-13-15-17-19-20-18-16-14-12-10-8-6-4-2/h3-20H2,1-2H3",-8.1724,CCCCCCCCCCCCCCCCCCCC,0,G1,B,None,None,Uncharged
B-656,"InChI=1S/C11H15NO3/c1-8(2)14-9-6-4-5-7-10(9)15-11(13)12-3/h4-8H,1-3H3,(H,12,13)",-2.0512,CNC(=O)OC1=CC=CC=C1OC(C)C,0,G1,B,None,None,Uncharged
B-661,"InChI=1S/C4H12FN2OP/c1-6(2)9(5,8)7(3)4/h1-4H3",0.8121,CN(C)P(F)(=O)N(C)C,0,G1,B,None,None,Uncharged
B-662,"InChI=1S/C9H4Cl6O4/c10-3-4(11)8(13)2(6(18)19)1(5(16)17)7(3,12)9(8,14)15/h1-2H,(H,16,17)(H,18,19)",-2.0457,[O-]C(=O)C1C(C([O-])=O)C2(Cl)C(Cl)=C(Cl)C1(Cl)C2(Cl)Cl,0,G1,B,None,None,Negative
B-663,"InChI=1S/C4H11NO2/c1-4(5,2-6)3-7/h6-7H,2-3,5H2,1H3",0.9782,CC([NH3+])(CO)CO,0,G1,B,None,None,Positive
B-665,"InChI=1S/C7H16O2/c1-3-7(4-2,5-8)6-9/h8-9H,3-6H2,1-2H3",0.1798,CCC(CC)(CO)CO,0,G1,B,None,None,Uncharged
B-667,"InChI=1S/C20H27O4P/c1-2-3-4-5-6-13-18-22-25(21,23-19-14-9-7-10-15-19)24-20-16-11-8-12-17-20/h7-12,14-17H,2-6,13,18H2,1H3",-6.4131,CCCCCCCCOP(=O)(OC1=CC=CC=C1)OC1=CC=CC=C1,0,G1,B,None,None,Uncharged
B-668,"InChI=1S/C13H13O4P/c1-15-18(14,16-12-8-4-2-5-9-12)17-13-10-6-3-7-11-13/h2-11H,1H3",-2.1209,COP(=O)(OC1=CC=CC=C1)OC1=CC=CC=C1,0,G1,B,None,None,Uncharged
B-669,"InChI=1S/C6H12Cl3O4P/c7-1-4-11-14(10,12-5-2-8)13-6-3-9/h1-6H2",-1.6105,ClCCOP(=O)(OCCCl)OCCCl,0.02744607,G3,B,None,None,Uncharged
B-670,"InChI=1S/C6H14NO3PS2/c1-4-7-6(8)5-13-11(12,9-2)10-3/h4-5H2,1-3H3,(H,7,8)",-1.4567,CCNC(=O)CSP(=S)(OC)OC,0,G1,B,None,None,Uncharged
B-671,"InChI=1S/C7H14N2O2S/c1-7(2,12-4)5-9-11-6(10)8-3/h5H,1-4H3,(H,8,10)/b9-5+",-1.4991,CNC(=O)ON=CC(C)(C)SC,0.05455,G3,B,None,None,Uncharged
B-672,"InChI=1S/C3H6O2/c1-3(5)2-4/h4H,2H2,1H3",1.1303,CC(=O)CO,0,G1,B,None,None,Uncharged
B-673,"InChI=1S/C4H8O/c1-4(2)5-3/h1H2,2-3H3",1.142,COC(C)=C,0,G1,B,None,None,Uncharged
B-674,InChI=1S/C2F4/c3-1(4)2(5)6,-2.8001,FC(F)=C(F)F,0,G1,B,None,None,Uncharged
B-675,"InChI=1S/C6H10N2O3/c1-6(2)4(10)7-5(11)8(6)3-9/h9H,3H2,1-2H3,(H,7,10,11)",0.8009,CC1(C)N(CO)C(=O)NC1=O,0,G1,B,None,None,Uncharged
B-676,"InChI=1S/C12H6Cl4O2S/c13-7-1-3-8(4-2-7)19(17,18)12-6-10(15)9(14)5-11(12)16/h1-6H",-6.6594,ClC1=CC=C(C=C1)S(=O)(=O)C1=CC(Cl)=C(Cl)C=C1Cl,0,G1,B,None,None,Uncharged
B-678,"InChI=1S/C14H9NO3/c15-9-5-6-10(16)12-11(9)13(17)7-3-1-2-4-8(7)14(12)18/h1-6,16H,15H2",-3.824,NC1=CC=C(O)C2=C1C(=O)C1=CC=CC=C1C2=O,0,G1,B,None,None,Uncharged
B-679,"InChI=1S/C14H8O8S2/c15-13-7-3-1-5-9(23(17,18)19)11(7)14(16)8-4-2-6-10(12(8)13)24(20,21)22/h1-6H,(H,17,18,19)(H,20,21,22)",0.2572,[O-]S(=O)(=O)C1=CC=CC2=C1C(=O)C1=C(C2=O)C(=CC=C1)S([O-])(=O)=O,0,G1,B,None,None,Negative
B-680,"InChI=1S/C14H9NO2/c15-8-5-6-11-12(7-8)14(17)10-4-2-1-3-9(10)13(11)16/h1-7H,15H2",-6.1366,NC1=CC=C2C(=O)C3=CC=CC=C3C(=O)C2=C1,0,G1,B,None,None,Uncharged
B-682,"InChI=1S/C14H18O6/c1-17-7-9-19-13(15)11-5-3-4-6-12(11)14(16)20-10-8-18-2/h3-6H,7-10H2,1-2H3",-1.5213,COCCOC(=O)C1=CC=CC=C1C(=O)OCCOC,0,G1,B,None,None,Uncharged
B-683,"InChI=1S/C24H38O4/c1-3-5-7-9-11-15-19-27-23(25)21-17-13-14-18-22(21)24(26)28-20-16-12-10-8-6-4-2/h13-14,17-18H,3-12,15-16,19-20H2,1-2H3",-7.2493,CCCCCCCCOC(=O)C1=CC=CC=C1C(=O)OCCCCCCCC,1.06715,G2,B,None,None,Uncharged
B-684,"InChI=1S/C21H21NO6/c1-22-7-6-11-8-15-16(27-10-26-15)9-13(11)18(22)19-12-4-5-14(24-2)20(25-3)17(12)21(23)28-19/h4-5,8-9,18-19H,6-7,10H2,1-3H3",-4.1065,COC1=CC=C2C(OC(=O)C2=C1OC)C1N(C)CCC2=CC3=C(OCO3)C=C12,0,G1,B,None,None,Uncharged
B-686,"InChI=1S/C12H13N/c1-2-13-12-9-5-7-10-6-3-4-8-11(10)12/h3-9,13H,2H2,1H3",-3.1922,CCNC1=CC=CC2=CC=CC=C12,0,G1,B,None,None,Uncharged
B-687,InChI=1S/C5H6Cl2N2O2/c1-5(2)3(10)8(6)4(11)9(5)7/h1-2H3,-2.5955,CC1(C)N(Cl)C(=O)N(Cl)C1=O,0,G1,B,None,None,Uncharged
B-690,"InChI=1S/C7H3ClF3NO2/c8-4-1-2-6(12(13)14)5(3-4)7(9,10)11/h1-3H",-3.3533,[O-][N+](=O)C1=CC=C(Cl)C=C1C(F)(F)F,0.112680337,G3,B,None,None,PureChargeSeparation
B-691,"InChI=1S/C14H17N2O4PS/c1-3-18-21(22,19-4-2)20-13-10-11-14(17)16(15-13)12-8-6-5-7-9-12/h5-11H,3-4H2,1-2H3",-3.5319,CCOP(=S)(OCC)OC1=NN(C(=O)C=C1)C1=CC=CC=C1,0,G1,B,None,None,Uncharged
B-692,"InChI=1S/C12H9N3O5/c16-10-4-1-8(2-5-10)13-11-6-3-9(14(17)18)7-12(11)15(19)20/h1-7,13,16H",-5.444,OC1=CC=C(NC2=CC=C(C=C2[N+]([O-])=O)[N+]([O-])=O)C=C1,0,G1,B,None,None,PureChargeSeparation
B-693,"InChI=1S/C16H13NO4S/c18-16-10-14(22(19,20)21)8-11-6-7-13(9-15(11)16)17-12-4-2-1-3-5-12/h1-10,17-18H,(H,19,20,21)",-1.9763,OC1=CC(=CC2=CC=C(NC3=CC=CC=C3)C=C12)S([O-])(=O)=O,0,G1,B,None,None,Negative
B-694,"InChI=1S/C10H17N3O2/c1-7(2)13-9(6-8(3)11-13)15-10(14)12(4)5/h6-7H,1-5H3",0.6752,CC(C)N1N=C(C)C=C1OC(=O)N(C)C,0,G1,B,None,None,Uncharged
B-695,"InChI=1S/C23H32O2/c1-14-9-16(20(24)18(11-14)22(3,4)5)13-17-10-15(2)12-19(21(17)25)23(6,7)8/h9-12,24-25H,13H2,1-8H3",-7.2311,CC1=CC(CC2=CC(C)=CC(=C2O)C(C)(C)C)=C(O)C(=C1)C(C)(C)C,0.910524483,G4,B,None,None,Uncharged
B-696,"InChI=1S/C20H38N4O4/c1-3-5-7-21(19(25)23-11-15-27-16-12-23)9-10-22(8-6-4-2)20(26)24-13-17-28-18-14-24/h3-18H2,1-2H3",0.0985,CCCCN(CCN(CCCC)C(=O)N1CCOCC1)C(=O)N1CCOCC1,0,G1,B,None,None,Uncharged
B-698,"InChI=1S/C13H11ClO/c14-12-8-6-11(7-9-12)13(15)10-4-2-1-3-5-10/h1-9,13,15H",-3.4886,OC(C1=CC=CC=C1)C1=CC=C(Cl)C=C1,0,G1,B,None,None,Uncharged
B-700,"InChI=1S/C8H9NO2/c1-9-7-5-3-2-4-6(7)8(10)11/h2-5,9H,1H3,(H,10,11)",-2.8784,CNC1=CC=CC=C1C([O-])=O,0,G1,B,None,None,Negative
B-701,"InChI=1S/C14H16N2/c1-9-7-11(3-5-13(9)15)12-4-6-14(16)10(2)8-12/h3-8H,15-16H2,1-2H3",-2.213,CC1=CC(=CC=C1N)C1=CC=C(N)C(C)=C1,0,G1,B,None,None,Uncharged
B-703,"InChI=1S/C9H10O3/c1-11-8-4-3-7(6-10)5-9(8)12-2/h3-6H,1-2H3",-1.4199,COC1=CC=C(C=O)C=C1OC,0.186462919,G3,B,None,None,Uncharged
B-704,"InChI=1S/C10H12O3/c1-3-13-9-5-4-8(7-11)6-10(9)12-2/h4-7H,3H2,1-2H3",-2.1913,CCOC1=CC=C(C=O)C=C1OC,0,G1,B,None,None,Uncharged
B-705,"InChI=1S/C13H11ClO/c14-12-6-7-13(15)11(9-12)8-10-4-2-1-3-5-10/h1-7,9,15H,8H2",-3.1666,OC1=CC=C(Cl)C=C1CC1=CC=CC=C1,0,G1,B,None,None,Uncharged
B-707,"InChI=1S/C5H4N4/c1-4-5(8-2-6-1)9-3-7-4/h1-3H,(H,6,7,8,9)",0.6194,N1C=NC2=NC=NC=C12,0,G1,B,None,None,Uncharged
B-708,InChI=1S/C14H8N2S4/c1-3-7-11-9(5-1)15-13(17-11)19-20-14-16-10-6-2-4-8-12(10)18-14/h1-8H,-4.5218,S(SC1=NC2=CC=CC=C2S1)C1=NC2=CC=CC=C2S1,1.279858235,G4,B,None,None,Uncharged
B-709,"InChI=1S/C21H28O3/c1-7-8-9-10-15-14(4)18(12-17(15)22)24-20(23)19-16(11-13(2)3)21(19,5)6/h7-9,11,16,18-19H,1,10,12H2,2-6H3/b9-8-/t16-,18+,19+/m1/s1",-6.2155,CC(C)=CC1C(C(=O)OC2CC(=O)C(CC=CC=C)=C2C)C1(C)C,0,G1,B,None,None,Uncharged
B-710,"InChI=1S/C22H28O5/c1-7-8-9-10-15-14(3)18(12-17(15)23)27-21(25)19-16(22(19,4)5)11-13(2)20(24)26-6/h7-9,11,16,18-19H,1,10,12H2,2-6H3/b9-8-,13-11+/t16-,18+,19+/m1/s1",-4.6168,COC(=O)C(C)=CC1C(C(=O)OC2CC(=O)C(CC=CC=C)=C2C)C1(C)C,0,G1,B,None,None,Uncharged
B-713,"InChI=1S/C10H12O5/c1-2-3-15-10(14)6-4-7(11)9(13)8(12)5-6/h4-5,11-13H,2-3H2,1H3",-1.7827,CCCOC(=O)C1=CC(O)=C(O)C(O)=C1,0,G1,B,None,None,Uncharged
B-714,InChI=1S/C3H6N6O6/c10-7(11)4-1-5(8(12)13)3-6(2-4)9(14)15/h1-3H2,-3.5706,[O-][N+](=O)N1CN(CN(C1)[N+]([O-])=O)[N+]([O-])=O,0.103574582,G5,B,None,None,PureChargeSeparation
B-715,"InChI=1S/C11H17NO3/c1-11(2)6-8(13)5-9(7-11)15-10(14)12(3)4/h5H,6-7H2,1-4H3",-0.8477,CN(C)C(=O)OC1=CC(=O)CC(C)(C)C1,0,G1,B,None,None,Uncharged
B-718,"InChI=1S/C12H12N2/c1-3-7-11(8-4-1)13-14-12-9-5-2-6-10-12/h1-10,13-14H",-2.921,N(NC1=CC=CC=C1)C1=CC=CC=C1,0,G1,B,None,None,Uncharged
B-719,"InChI=1S/C8H11NO/c10-7-6-9-8-4-2-1-3-5-8/h1-5,9-10H,6-7H2",-0.4745,OCCNC1=CC=CC=C1,0.017216106,G3,B,None,None,Uncharged
B-724,"InChI=1S/C8H10O8/c9-5(10)1-3-7(13)15-16-8(14)4-2-6(11)12/h1-4H2,(H,9,10)(H,11,12)",-0.8471,[O-]C(=O)CCC(=O)OOC(=O)CCC([O-])=O,0,G1,B,None,Unstable,Negative
B-725,"InChI=1S/C11H22O2/c1-3-5-6-7-8-9-10-11(12)13-4-2/h3-10H2,1-2H3",-3.8007,CCCCCCCCC(=O)OCC,0,G1,B,None,None,Uncharged
B-726,"InChI=1S/C10H16/c1-5-10(4)8-6-7-9(2)3/h5,7H,1,4,6,8H2,2-3H3",-4.3861,CC(C)=CCCC(=C)C=C,0.022023871,G3,B,None,None,Uncharged
B-728,"InChI=1S/C6H12O2/c1-5(7)4-6(2,3)8/h8H,4H2,1-3H3",0.9349,CC(=O)CC(C)(C)O,0,G1,B,None,None,Uncharged
B-731,"InChI=1S/C22H42O4/c1-3-5-7-9-11-15-19-25-21(23)17-13-14-18-22(24)26-20-16-12-10-8-6-4-2/h3-20H2,1-2H3",-5.6768,CCCCCCCCOC(=O)CCCCC(=O)OCCCCCCCC,0,G1,B,None,None,Uncharged
B-732,"InChI=1S/C5H14N2O/c1-5(8)4-7-3-2-6/h5,7-8H,2-4,6H2,1H3",0.9275,CC(O)C[NH2+]CC[NH3+],0,G1,B,None,None,Positive
B-734,"InChI=1S/C7H14O2/c1-6(2)4-5-9-7(3)8/h6H,4-5H2,1-3H3",-1.8135,CC(C)CCOC(C)=O,0.05325,G3,B,None,None,Uncharged
B-735,"InChI=1S/C4H6O4S/c5-3(6)1-9-2-4(7)8/h1-2H2,(H,5,6)(H,7,8)",0.4255,[O-]C(=O)CSCC([O-])=O,0,G1,B,None,None,Negative
B-736,"InChI=1S/C8H16O/c1-2-3-4-5-6-7-8-9/h8H,2-7H2,1H3",-2.3598,CCCCCCCC=O,0,G1,B,None,None,Uncharged
B-737,"InChI=1S/C10H20O4/c1-3-4-5-12-6-7-13-8-9-14-10(2)11/h3-9H2,1-2H3",-0.8188,CCCCOCCOCCOC(C)=O,0.157391945,G3,B,None,None,Uncharged
B-738,"InChI=1S/C10H22/c1-3-5-7-9-10-8-6-4-2/h3-10H2,1-2H3",-6.4372,CCCCCCCCCC,0,G1,B,None,None,Uncharged
B-740,"InChI=1S/C12H27N/c1-2-3-4-5-6-7-8-9-10-11-12-13/h2-13H2,1H3",-3.3759,CCCCCCCCCCCC[NH3+],0.816809959,G4,B,None,None,Positive
B-742,"InChI=1S/CH5AsO3/c1-2(3,4)5/h1H3,(H2,3,4,5)",0.2622,C[As](O)([O-])=O,0,G1,B,None,None,Negative
B-743,"InChI=1S/C4H12O4P.ClH/c5-1-9(2-6,3-7)4-8;/h5-8H,1-4H2;1H/q+1;/p-1",0.322,OC[P+](CO)(CO)CO,0,G1,B,None,None,Positive
B-744,"InChI=1S/C4H11NO/c1-4(2,5)3-6/h6H,3,5H2,1-2H3",1.0499,CC(C)([NH3+])CO,0,G1,B,None,None,Positive
B-745,"InChI=1S/C2Br2F4/c3-1(5,6)2(4,7)8",-4.9376,FC(F)(Br)C(F)(F)Br,0,G1,B,None,None,Uncharged
B-746,"InChI=1S/C10H16O4/c1-9(2)6(7(11)12)4-5-10(9,3)8(13)14/h6H,4-5H2,1-3H3,(H,11,12)(H,13,14)/p-2/t6-,10+/m1/s1",-1.4207,CC1(C)C(CCC1(C)C([O-])=O)C([O-])=O,0,G1,B,None,None,Negative
B-747,"InChI=1S/C15H18O7.C15H16O6/c1-12(2,18)6-7-10(16)20-8(6)9-13(3)14(7,19)4-5-15(13,22-5)11(17)21-9;1-5(2)7-8-11(16)19-9(7)10-13(3)14(8,18)4-6-15(13,21-6)12(17)20-10/h5-9,18-19H,4H2,1-3H3;6-10,18H,1,4H2,2-3H3/t5-,6+,7?,8?,9-,13-,14-,15+;6?,7-,8?,9?,10+,13+,14+,15-/m10/s1",-2.1672,CC(C)(O)C1C2OC(=O)C1C1(O)CC3OC33C(=O)OC2C13C,0,G1,B,None,None,Uncharged
B-749,"InChI=1S/C28H38O19/c1-12(29)37-9-20-22(40-15(4)32)24(42-17(6)34)25(43-18(7)35)27(45-20)47-28(11-39-14(3)31)26(44-19(8)36)23(41-16(5)33)21(46-28)10-38-13(2)30/h20-27H,9-11H2,1-8H3/t20-,21-,22-,23-,24+,25-,26+,27-,28+/m1/s1",-2.8726,CC(=O)OCC1OC(COC(C)=O)(OC2OC(COC(C)=O)C(OC(C)=O)C(OC(C)=O)C2OC(C)=O)C(OC(C)=O)C1OC(C)=O,0,G1,B,None,None,Uncharged
B-750,"InChI=1S/C9H13NO2/c1-2-9(12-8(10)11)6-4-3-5-7-9/h1H,3-7H2,(H2,10,11)",-1.8253,NC(=O)OC1(CCCCC1)C#C,0,G1,B,None,None,Uncharged
B-751,"InChI=1S/C10H22O7/c11-1-9(2-12,3-13)7-17-8-10(4-14,5-15)6-16/h11-16H,1-8H2",-1.9582,OCC(CO)(CO)COCC(CO)(CO)CO,0.033449627,G3,B,None,None,Uncharged
B-752,"InChI=1S/C9H15Br6O4P/c10-1-7(13)4-17-20(16,18-5-8(14)2-11)19-6-9(15)3-12/h7-9H,1-6H2",-4.9405,BrCC(Br)COP(=O)(OCC(Br)CBr)OCC(Br)CBr,0,G1,B,None,None,Uncharged
B-753,"InChI=1S/C8H19O3PS2/c1-4-10-12(9,11-5-2)14-8-7-13-6-3/h4-8H2,1-3H3",-2.1112,CCOP(=O)(OCC)SCCSCC,0,G1,B,None,None,Uncharged
B-754,"InChI=1S/C8H12O2/c1-8(2)4-6(9)3-7(10)5-8/h3-5H2,1-2H3",-1.5276,CC1(C)CC(=O)CC(=O)C1,0,G1,B,None,None,Uncharged
B-755,"InChI=1S/C8H15NO2/c1-3-5-6-8(4-2,11-6)7(9)10/h6H,3-5H2,1-2H3,(H2,9,10)",-1.1745,CCCC1OC1(CC)C(N)=O,0,G1,B,None,None,Uncharged
B-756,"InChI=1S/CH4N2O2/c2-1(4)3-5/h5H,(H3,2,3,4)",1.1189,NC(=O)NO,0,G1,B,None,None,Uncharged
B-757,"InChI=1S/C3H4O3/c1-2(4)3(5)6/h1H3,(H,5,6)",1.0552,OC(=C)C([O-])=O,0,G1,B,None,None,Negative
B-759,InChI=1S/C6H9NO3/c1-6(2)4(8)7(3)5(9)10-6/h1-3H3,-0.4568,CN1C(=O)OC(C)(C)C1=O,0,G1,B,None,None,Uncharged
B-760,"InChI=1S/C13H12N2O3S/c14-11-6-8-12(9-7-11)19(17,18)15-13(16)10-4-2-1-3-5-10/h1-9H,14H2,(H,15,16)",-2.9501,NC1=CC=C(C=C1)S(=O)(=O)[N-]C(=O)C1=CC=CC=C1,0,G1,B,None,None,Negative
B-762,"InChI=1S/C3H5O3.Ag/c1-2(4)3(5)6;/h2H,1H3,(H,5,6);/q-1;+1",-0.4702,CC(O)C([O-])=O,0,G1,B,None,None,Negative
B-763,InChI=1S/C4H4BrNO2/c5-6-3(7)1-2-4(6)8/h1-2H2,-1.0831,BrN1C(=O)CCC1=O,0,G1,B,None,None,Uncharged
B-764,InChI=1S/C4H4ClNO2/c5-6-3(7)1-2-4(6)8/h1-2H2,-0.9702,ClN1C(=O)CCC1=O,0,G1,B,None,None,Uncharged
B-765,"InChI=1S/C24H40O4/c1-14(4-7-21(27)28)17-5-6-18-22-19(9-11-24(17,18)3)23(2)10-8-16(25)12-15(23)13-20(22)26/h14-20,22,25-26H,4-13H2,1-3H3,(H,27,28)/t14-,15+,16-,17-,18+,19+,20+,22+,23+,24-/m1/s1",-4.2929,CC(CCC([O-])=O)C1CCC2C3C(O)CC4CC(O)CCC4(C)C3CCC12C,0,G1,B,None,None,Negative
B-768,"InChI=1S/C22H23NO7/c1-23-8-7-11-9-14-20(29-10-28-14)21(27-4)15(11)17(23)18-12-5-6-13(25-2)19(26-3)16(12)22(24)30-18/h5-6,9,17-18H,7-8,10H2,1-4H3/t17-,18+/m1/s1",-3.1393,COC1=CC=C2C(OC(=O)C2=C1OC)C1[NH+](C)CCC2=CC3=C(OCO3)C(OC)=C12,0,G1,B,None,None,Positive
B-769,"InChI=1S/C14H8O3/c15-11-7-3-6-10-12(11)14(17)9-5-2-1-4-8(9)13(10)16/h1-7,15H",-4.4213,OC1=CC=CC2=C1C(=O)C1=CC=CC=C1C2=O,0,G1,B,None,None,Uncharged
B-770,"InChI=1S/C7H3N3O8/c11-7(12)6-4(9(15)16)1-3(8(13)14)2-5(6)10(17)18/h1-2H,(H,11,12)",-1.0977,[O-]C(=O)C1=C(C=C(C=C1[N+]([O-])=O)[N+]([O-])=O)[N+]([O-])=O,0,G1,B,None,None,Negative
B-771,"InChI=1S/C9H6ClNO/c10-7-3-4-8(12)9-6(7)2-1-5-11-9/h1-5,12H",-3.9756,OC1=CC=C(Cl)C2=CC=CN=C12,0,G1,B,None,None,Uncharged
B-772,"InChI=1S/C12H14N2O5/c15-12-10(8-4-2-1-3-5-8)6-9(13(16)17)7-11(12)14(18)19/h6-8,15H,1-5H2",-4.2492,[O-]C1=C(C=C(C=C1[N+]([O-])=O)[N+]([O-])=O)C1CCCCC1,0,G1,B,None,None,Negative
B-773,"InChI=1S/C16H11NO2/c18-16(19)13-10-15(11-6-2-1-3-7-11)17-14-9-5-4-8-12(13)14/h1-10H,(H,18,19)",-3.1926,[O-]C(=O)C1=CC(=NC2=CC=CC=C12)C1=CC=CC=C1,0,G1,B,None,None,Negative
B-774,"InChI=1S/C18H13NO3/c20-17(14-9-3-4-10-15(14)18(21)22)19-16-11-5-7-12-6-1-2-8-13(12)16/h1-11H,(H,19,20)(H,21,22)",-3.1633,[O-]C(=O)C1=CC=CC=C1C(=O)NC1=CC=CC2=CC=CC=C12,0,G1,B,None,None,Negative
B-775,"InChI=1S/C10H8O2/c11-8-5-7-3-1-2-4-9(7)10(12)6-8/h1-6,11-12H",-1.9493,OC1=CC2=CC=CC=C2C(O)=C1,0,G1,B,None,None,Uncharged
B-776,"InChI=1S/C9H8Cl3NO2S/c10-9(11,12)16-13-7(14)5-3-1-2-4-6(5)8(13)15/h1-2,5-6H,3-4H2",-4.7704,ClC(Cl)(Cl)SN1C(=O)C2CC=CCC2C1=O,0,G1,B,None,None,Uncharged
B-777,"InChI=1S/C9H4Cl3NO2S/c10-9(11,12)16-13-7(14)5-3-1-2-4-6(5)8(13)15/h1-4H",-5.569,ClC(Cl)(Cl)SN1C(=O)C2=CC=CC=C2C1=O,0,G1,B,None,None,Uncharged
B-778,"InChI=1S/C12H13NO2/c14-12(15)7-3-4-9-8-13-11-6-2-1-5-10(9)11/h1-2,5-6,8,13H,3-4,7H2,(H,14,15)",-2.9101,[O-]C(=O)CCCC1=CNC2=CC=CC=C12,0,G1,B,None,None,Negative
B-780,"InChI=1S/C8H8Cl2O/c1-4-3-6(11)8(10)5(2)7(4)9/h3,11H,1-2H3",-2.9801,CC1=CC(O)=C(Cl)C(C)=C1Cl,0,G1,B,None,None,Uncharged
B-781,"InChI=1S/C7H4I2O3/c8-3-1-4(7(11)12)6(10)5(9)2-3/h1-2,10H,(H,11,12)",-3.307,OC1=C(I)C=C(I)C=C1C([O-])=O,0,G1,B,None,None,Negative
B-783,"InChI=1S/C15H12O4/c1-11(16)18-14-10-6-5-9-13(14)15(17)19-12-7-3-2-4-8-12/h2-10H,1H3",-4.1077,CC(=O)OC1=CC=CC=C1C(=O)OC1=CC=CC=C1,0,G1,B,None,None,Uncharged
B-785,"InChI=1S/C12H10ClN/c13-11-5-1-9(2-6-11)10-3-7-12(14)8-4-10/h1-8H,14H2",-4.6383,NC1=CC=C(C=C1)C1=CC=C(Cl)C=C1,0,G1,B,None,None,Uncharged
B-786,"InChI=1S/C12H11N3/c1-3-7-11(8-4-1)13-15-14-12-9-5-2-6-10-12/h1-10H,(H,13,14)",-2.596,N(N=NC1=CC=CC=C1)C1=CC=CC=C1,0,G1,B,None,None,Uncharged
B-787,"InChI=1S/C8H10N2O3/c1-2-13-8-4-3-6(10(11)12)5-7(8)9/h3-5H,2,9H2,1H3",-3.2113,CCOC1=CC=C(C=C1N)[N+]([O-])=O,0,G1,B,None,None,PureChargeSeparation
B-788,"InChI=1S/C9H13N/c1-6-4-8(3)9(10)5-7(6)2/h4-5H,10H2,1-3H3",-1.9549,CC1=CC(C)=C(N)C=C1C,0,G1,B,None,None,Uncharged
B-791,"InChI=1S/C5H9NO4.ClH/c6-3(5(9)10)1-2-4(7)8;/h3H,1-2,6H2,(H,7,8)(H,9,10);1H",0.3159,[NH3+]C(CCC([O-])=O)C([O-])=O,0,G1,B,None,None,Zwitterion
B-792,"InChI=1S/C7H14O3/c1-3-4-5-10-7(9)6(2)8/h6,8H,3-5H2,1-2H3",-0.5629,CCCCOC(=O)C(C)O,0,G1,B,None,None,Uncharged