ID,InChI,Solubility,SMILEScurated,SD,Group,Dataset,Composition,Error,Charge
A-3760,"InChI=1S/C27H27N5O20S6.4Na/c1-50-20-7-6-18(54(36,37)11-9-52-58(47,48)49)14-19(20)30-32-26-22(56(41,42)43)13-15-12-21(55(38,39)40)25(24(28)23(15)27(26)33)31-29-16-2-4-17(5-3-16)53(34,35)10-8-51-57(44,45)46;;;;/h2-7,12-14,30H,8-11,28H2,1H3,(H,38,39,40)(H,41,42,43)(H,44,45,46)(H,47,48,49);;;;/q;4*+1/p-4/b31-29?,32-26+;;;;",-0.416104482,COC1=CC=C(C=C1NN=C1C(=O)C2=C(N)C(N=NC3=CC=C(C=C3)S(=O)(=O)CCOS([O-])(=O)=O)=C(C=C2C=C1S([O-])(=O)=O)S([O-])(=O)=O)S(=O)(=O)CCOS([O-])(=O)=O,0,G1,A,None,None,Negative
A-3762,"InChI=1S/C8H10N2O/c1-5-2-3-6(8(10)11)4-7(5)9/h2-4H,9H2,1H3,(H2,10,11)",-0.57673192,CC1=CC=C(C=C1N)C(N)=O,0,G1,A,None,None,Uncharged
A-3765,"InChI=1S/C4H5NOS/c6-2-4-1-5-3-7-4/h1,3,6H,2H2",0.525735536,OCC1=CN=CS1,0,G1,A,None,None,Uncharged
A-3768,"InChI=1S/C7H11NO4/c1-4(9)8-3-5(10)2-6(8)7(11)12/h5-6,10H,2-3H2,1H3,(H,11,12)/p-1/t5-,6-/m0/s1",0.344992722,CC(=O)N1CC(O)CC1C([O-])=O,0,G1,A,None,None,Negative
A-3769,"InChI=1S/C29H23N3O17S5.4Na/c33-27-25-18(13-20(51(37,38)39)15-23(25)30-29(34)16-4-2-1-3-5-16)14-24(52(40,41)42)26(27)32-31-22-9-6-17-12-19(7-8-21(17)28(22)53(43,44)45)50(35,36)11-10-49-54(46,47)48;;;;/h1-9,12-15,31H,10-11H2,(H,30,34)(H,37,38,39)(H,40,41,42)(H,43,44,45)(H,46,47,48);;;;/q;4*+1/p-4/b32-26+;;;;",-0.389314941,[O-]S(=O)(=O)OCCS(=O)(=O)C1=CC2=CC=C(NN=C3C(=O)C4=C(NC(=O)C5=CC=CC=C5)C=C(C=C4C=C3S([O-])(=O)=O)S([O-])(=O)=O)C(=C2C=C1)S([O-])(=O)=O,0,G1,A,None,None,Negative
A-3771,"InChI=1S/C28H29N7O10S3.C14H17N5O4S.4Na/c1-29-21-6-4-18(24(16-21)47(39,40)41)2-3-19-5-7-22(17-25(19)48(42,43)44)31-27-32-26(33-28(34-27)35-12-14-45-15-13-35)30-20-8-10-23(11-9-20)46(36,37)38;1-10-15-13(18-14(16-10)19-6-8-23-9-7-19)17-11-2-4-12(5-3-11)24(20,21)22;;;;/h2-11,16-17,29H,12-15H2,1H3,(H,36,37,38)(H,39,40,41)(H,42,43,44)(H2,30,31,32,33,34);2-5H,6-9H2,1H3,(H,20,21,22)(H,15,16,17,18);;;;/p-4/b3-2+;;;;;",-0.48433581,CNC1=CC=C(C=CC2=CC=C(NC3=NC(NC4=CC=C(C=C4)S([O-])(=O)=O)=NC(=N3)N3CCOCC3)C=C2S([O-])(=O)=O)C(=C1)S([O-])(=O)=O,0,G1,A,None,Multi-constituent Substances,Negative
A-3772,"InChI=1S/C3H9OS.HI/c1-5(2,3)4;/h1-3H3;1H/q+1;/p-1",-0.756884432,C[S+](C)(C)=O,0.047324617,G3,A,None,None,Positive
A-3773,"InChI=1S/C7H10N2/c1-5-2-3-6(8)4-7(5)9/h2-4H,8-9H2,1H3",-0.507184532,CC1=CC=C(N)C=C1N,0,G1,A,None,None,Uncharged
A-3774,"InChI=1S/C7H10N2/c1-5-4-6(8)2-3-7(5)9/h2-4H,8-9H2,1H3",-0.507184532,CC1=CC(N)=CC=C1N,0.076305082,G3,A,None,None,Uncharged
A-3775,"InChI=1S/Co.H2O4S.7H2O/c;1-5(2,3)4;;;;;;;/h;(H2,1,2,3,4);7*1H2/q+2;;;;;;;;/p-2",0.12713323,[O-]S([O-])(=O)=O,0,G1,A,None,None,Negative
A-3776,"InChI=1S/C3H7NS2.Na/c1-4(2)3(5)6;/h1-2H3,(H,5,6);/q;+1/p-1",0.416892192,CN(C)C([S-])=S,0,G1,A,None,None,Negative
A-3778,"InChI=1S/C31H42N3.C2H4O2/c1-7-32(8-2)28-19-13-25(14-20-28)31(26-15-21-29(22-16-26)33(9-3)10-4)27-17-23-30(24-18-27)34(11-5)12-6;1-2(3)4/h13-24H,7-12H2,1-6H3;1H3,(H,3,4)/q+1;/p-1",-0.139560898,CC([O-])=O.CCN(CC)C1=CC=C(C=C1)[C+](C1=CC=C(C=C1)N(CC)CC)C1=CC=C(C=C1)N(CC)CC,0,G1,A,None,Non Valid pH,Zwitterion
A-3779,InChI=1S/ClH.H3N/h1H;1H3,0.842254104,[Cl-],0.013027078,G3,A,None,Cosolvent Buffer,Negative
A-3781,"InChI=1S/C6H11N4O2.ClH/c7-6-5-10(8-12-6)9-1-3-11-4-2-9;/h5H,1-4,7H2;1H/q+1;/p-1",0.147198317,[NH-]C1=CN(N=[O+]1)N1CCOCC1,0,G1,A,None,None,Zwitterion
A-3786,"InChI=1S/C8H12O4/c1-2-3-6-12-8(11)5-4-7(9)10/h4-5H,2-3,6H2,1H3,(H,9,10)/b5-4-",-0.667780979,CCCCOC(=O)C=CC([O-])=O,0,G1,A,None,None,Negative
A-3788,"InChI=1S/C9H13NO2/c1-7-2-3-8(6-9(7)12)10-4-5-11/h2-3,6,10-12H,4-5H2,1H3",-0.655055328,CC1=CC=C(NCCO)C=C1O,0,G1,A,None,None,Uncharged
A-3789,"InChI=1S/C20H22N4O11S3.2Na/c1-12-10-16(17(34-3)11-18(12)36(26,27)9-8-35-38(31,32)33)21-22-19-13(2)23-24(20(19)25)14-4-6-15(7-5-14)37(28,29)30;;/h4-7,10-11,19H,8-9H2,1-3H3,(H,28,29,30)(H,31,32,33);;/q;2*+1/p-2",-0.239003926,COC1=CC(=C(C)C=C1N=NC1C(C)=NN(C1=O)C1=CC=C(C=C1)S([O-])(=O)=O)S(=O)(=O)CCOS([O-])(=O)=O,0,G1,A,None,None,Negative
A-3791,"InChI=1S/C5H9NO3/c7-3-1-4(5(8)9)6-2-3/h3-4,6-7H,1-2H2,(H,8,9)",0.439922115,OC1C[NH2+]C(C1)C([O-])=O,0,G1,A,None,None,Zwitterion
A-3793,"InChI=1S/C14H14N2O4S.Na/c1-9-2-3-10(8-13(9)15)14(17)16-11-4-6-12(7-5-11)21(18,19)20;/h2-8H,15H2,1H3,(H,16,17)(H,18,19,20);/q;+1/p-1",-0.949277587,CC1=CC=C(C=C1N)C(=O)NC1=CC=C(C=C1)S([O-])(=O)=O,0,G1,A,None,None,Negative
A-3794,"InChI=1S/C7H12O2/c1-4-6(3)7(8)9-5-2/h4,6H,1,5H2,2-3H3",-1.576310856,CCOC(=O)C(C)C=C,0,G1,A,None,None,Uncharged
A-3795,"InChI=1S/C2H7N3S/c1-4-2(6)5-3/h3H2,1H3,(H2,4,5,6)",-0.465572855,CNC(=S)NN,1.476038224,G2,A,None,None,Uncharged
A-3798,InChI=1S/ClH.K/h1H;/q;+1/p-1,0.67777488,[K+],0.019303695,G5,A,None,None,Positive
A-3799,"InChI=1S/C10H8O3S/c11-14(12,13)10-6-5-8-3-1-2-4-9(8)7-10/h1-7H,(H,11,12,13)",0.230443278,[O-]S(=O)(=O)C1=CC2=CC=CC=C2C=C1,0.782552579,G4,A,None,None,Negative
A-3804,"InChI=1S/C7H10O4/c1-5(7(9)11-3)4-6(8)10-2/h1,4H2,2-3H3",-0.653770318,COC(=O)CC(=C)C(=O)OC,0,G1,A,None,None,Uncharged
A-3805,"InChI=1S/C10H14O3/c11-6-7-12-8-9-13-10-4-2-1-3-5-10/h1-5,11H,6-9H2",-0.716525615,OCCOCCOC1=CC=CC=C1,0,G1,A,None,None,Uncharged
A-3806,"InChI=1S/C10H20O2/c1-9(6-8-11)5-4-7-10(2,3)12/h8-9,12H,4-7H2,1-3H3",-0.692136567,CC(CCCC(C)(C)O)CC=O,0,G1,A,None,None,Uncharged
A-3807,"InChI=1S/C6H15N/c1-3-5-7-6-4-2/h7H,3-6H2,1-2H3",-0.461082427,CCC[NH2+]CCC,0.111941214,G3,A,None,None,Positive
A-3808,"InChI=1S/C6H7N/c7-6-4-2-1-3-5-6/h1-5H,7H2",-0.425016895,NC1=CC=CC=C1,0.006117228,G3,A,None,None,Uncharged
A-3811,"InChI=1S/C8H6O7S.Na/c9-7(10)4-1-5(8(11)12)3-6(2-4)16(13,14)15;/h1-3H,(H,9,10)(H,11,12)(H,13,14,15);/q;+1/p-1",0.109395948,[O-]C(=O)C1=CC(=CC(=C1)C([O-])=O)S([O-])(=O)=O,0,G1,A,None,None,Negative
A-3812,"InChI=1S/C44H30Cl2N14O20S6.6Na/c45-39-51-41(55-43(53-39)49-27-17-23(81(63,64)65)13-19-15-31(85(75,76)77)35(37(61)33(19)27)59-57-25-5-1-3-7-29(25)83(69,70)71)47-21-9-11-22(12-10-21)48-42-52-40(46)54-44(56-42)50-28-18-24(82(66,67)68)14-20-16-32(86(78,79)80)36(38(62)34(20)28)60-58-26-6-2-4-8-30(26)84(72,73)74;;;;;;/h1-18,57-58H,(H,63,64,65)(H,66,67,68)(H,69,70,71)(H,72,73,74)(H,75,76,77)(H,78,79,80)(H2,47,49,51,53,55)(H2,48,50,52,54,56);;;;;;/q;6*+1/p-6/b59-35-,60-36-;;;;;;",-0.630380903,[O-]S(=O)(=O)C1=CC2=C(C(NC3=NC(NC4=CC=C(NC5=NC(NC6=C7C(=CC(=C6)S([O-])(=O)=O)C=C(C(=NNC6=CC=CC=C6S([O-])(=O)=O)C7=O)S([O-])(=O)=O)=NC(Cl)=N5)C=C4)=NC(Cl)=N3)=C1)C(=O)C(=NNC1=CC=CC=C1S([O-])(=O)=O)C(=C2)S([O-])(=O)=O,0,G1,A,None,None,Negative
A-3817,"InChI=1S/C19H18P.BrH/c1-20(17-11-5-2-6-12-17,18-13-7-3-8-14-18)19-15-9-4-10-16-19;/h2-16H,1H3;1H/q+1;/p-1",-0.018923033,C[P+](C1=CC=CC=C1)(C1=CC=CC=C1)C1=CC=CC=C1,0,G1,A,None,None,Positive
A-3819,"InChI=1S/C6H8N.ClH/c1-7-5-3-2-4-6-7;/h2-6H,1H3;1H/q+1;/p-1",0.420182889,C[N+]1=CC=CC=C1,0,G1,A,None,None,Positive
A-3820,"InChI=1S/C26H26FN9O13S4.3Na/c1-2-50(38,39)8-7-49-6-5-29-25-32-23(27)33-26(34-25)30-15-3-4-18(19(11-15)31-24(28)37)35-36-20-13-17-14(10-22(20)53(46,47)48)9-16(51(40,41)42)12-21(17)52(43,44)45;;;/h2-4,9-13H,1,5-8H2,(H3,28,31,37)(H,40,41,42)(H,43,44,45)(H,46,47,48)(H2,29,30,32,33,34);;;/q;3*+1/p-3",-0.414559724,NC(=O)NC1=CC(NC2=NC(F)=NC(NCCOCCS(=O)(=O)C=C)=N2)=CC=C1N=NC1=CC2=C(C=C(C=C2C=C1S([O-])(=O)=O)S([O-])(=O)=O)S([O-])(=O)=O,0,G1,A,None,None,Negative
A-3821,"InChI=1S/C7H10N2/c1-3-7-6(2)8-4-5-9-7/h4-5H,3H2,1-2H3",0.444510788,CCC1=NC=CN=C1C,0,G1,A,None,None,Uncharged
A-3822,"InChI=1S/ClH.H3NO/c;1-2/h1H;2H,1H2",0.689550356,NO,0,G1,A,None,None,Uncharged
A-3825,"InChI=1S/C7H10N2O2/c1-3-6(10)8-5-9-7(11)4-2/h3-4H,1-2,5H2,(H,8,10)(H,9,11)",-0.655242676,C=CC(=O)NCNC(=O)C=C,0,G1,A,None,Non Valid pH,Uncharged
A-3830,"InChI=1S/C6H10O7/c7-1-2(8)3(9)4(10)5(11)6(12)13/h2-4,7-10H,1H2,(H,12,13)/t2-,3+,4-/m0/s1",0.237320765,OCC(O)C(O)C(O)C(=O)C([O-])=O,0,G1,A,None,None,Negative
A-3831,"InChI=1S/C5H11NO2/c1-6(7)2-4-8-5-3-6/h2-5H2,1H3",0.456309929,C[N+]1([O-])CCOCC1,0,G1,A,None,None,PureChargeSeparation
A-3832,"InChI=1S/C6H8O7.3C2H7NO/c7-3(8)1-6(13,5(11)12)2-4(9)10;3*3-1-2-4/h13H,1-2H2,(H,7,8)(H,9,10)(H,11,12);3*4H,1-3H2",-0.050160116,[NH3+]CCO.[NH3+]CCO.[NH3+]CCO.OC(CC([O-])=O)(CC([O-])=O)C([O-])=O,0,G1,A,None,Cosolvent Buffer,Zwitterion
A-3833,"InChI=1S/C4H12N2O3S.Na/c5-1-2-6-3-4-10(7,8)9;/h6H,1-5H2,(H,7,8,9);/q;+1/p-1",0.244535954,[NH3+]CCNCCS([O-])(=O)=O,0,G1,A,None,None,Zwitterion
A-3834,"InChI=1S/C27H22ClN9O9S3.3Na/c1-13-11-20(36-37-21-12-15(47(38,39)40)6-9-22(21)48(41,42)43)14(2)10-19(13)35-34-17-7-8-18(30-27-32-25(28)31-26(29)33-27)24-16(17)4-3-5-23(24)49(44,45)46;;;/h3-12H,1-2H3,(H,38,39,40)(H,41,42,43)(H,44,45,46)(H3,29,30,31,32,33);;;/q;3*+1/p-3",-0.386945691,CC1=CC(N=NC2=CC=C(NC3=NC(N)=NC(Cl)=N3)C3=C(C=CC=C23)S([O-])(=O)=O)=C(C)C=C1N=NC1=CC(=CC=C1S([O-])(=O)=O)S([O-])(=O)=O,0,G1,A,None,None,Negative
A-3835,"InChI=1S/C6H10O5S.K/c1-2-6(7)11-4-3-5-12(8,9)10;/h2H,1,3-5H2,(H,8,9,10);/q;+1/p-1",1.156268325,[O-]S(=O)(=O)CCCOC(=O)C=C,0,G1,A,None,None,Negative
A-3836,"InChI=1S/C32H26ClN7O11S3.3Na/c1-13-25(36-20-12-21(53(46,47)48)24(34)23-22(20)27(41)18-9-4-5-10-19(18)28(23)42)14(2)29(54(49,50)51)15(3)26(13)37-32-39-30(33)38-31(40-32)35-16-7-6-8-17(11-16)52(43,44)45;;;/h4-12,36H,34H2,1-3H3,(H,43,44,45)(H,46,47,48)(H,49,50,51)(H2,35,37,38,39,40);;;/q;3*+1/p-3",-0.424427985,CC1=C(NC2=NC(Cl)=NC(NC3=CC=CC(=C3)S([O-])(=O)=O)=N2)C(C)=C(C(C)=C1NC1=CC(=C(N)C2=C1C(=O)C1=CC=CC=C1C2=O)S([O-])(=O)=O)S([O-])(=O)=O,0,G1,A,None,None,Negative
A-3837,"InChI=1S/C32H26ClN7O11S3.3Na/c1-13-25(35-19-12-21(53(46,47)48)24(34)23-22(19)27(41)16-8-4-5-9-17(16)28(23)42)14(2)29(54(49,50)51)15(3)26(13)37-32-39-30(33)38-31(40-32)36-18-10-6-7-11-20(18)52(43,44)45;;;/h4-12,35H,34H2,1-3H3,(H,43,44,45)(H,46,47,48)(H,49,50,51)(H2,36,37,38,39,40);;;/q;3*+1/p-3",-0.424427985,CC1=C(NC2=NC(Cl)=NC(NC3=CC=CC=C3S([O-])(=O)=O)=N2)C(C)=C(C(C)=C1NC1=CC(=C(N)C2=C1C(=O)C1=CC=CC=C1C2=O)S([O-])(=O)=O)S([O-])(=O)=O,0,G1,A,None,None,Negative
A-3842,"InChI=1S/C6H6FN/c7-5-1-3-6(8)4-2-5/h1-4H,8H2",-0.527274385,NC1=CC=C(F)C=C1,0,G1,A,None,None,Uncharged
A-3846,"InChI=1S/C60H52N16O22S6.6Na/c77-53-49-35(27-47(103(91,92)93)51(53)73-71-37-7-3-1-4-8-37)25-41(99(79,80)81)31-43(49)63-57-65-55(67-59(69-57)75-17-21-97-22-18-75)61-39-15-13-33(45(29-39)101(85,86)87)11-12-34-14-16-40(30-46(34)102(88,89)90)62-56-66-58(70-60(68-56)76-19-23-98-24-20-76)64-44-32-42(100(82,83)84)26-36-28-48(104(94,95)96)52(54(78)50(36)44)74-72-38-9-5-2-6-10-38;;;;;;/h1-16,25-32,71-72H,17-24H2,(H,79,80,81)(H,82,83,84)(H,85,86,87)(H,88,89,90)(H,91,92,93)(H,94,95,96)(H2,61,63,65,67,69)(H2,62,64,66,68,70);;;;;;/q;6*+1/p-6/b12-11+,73-51+,74-52+;;;;;;",-1.144796153,[O-]S(=O)(=O)C1=CC(NC2=NC(=NC(NC3=CC(=C(C=CC4=C(C=C(NC5=NC(NC6=C7C(=O)C(=NNC8=CC=CC=C8)C(=CC7=CC(=C6)S([O-])(=O)=O)S([O-])(=O)=O)=NC(=N5)N5CCOCC5)C=C4)S([O-])(=O)=O)C=C3)S([O-])(=O)=O)=N2)N2CCOCC2)=C2C(=O)C(=NNC3=CC=CC=C3)C(=CC2=C1)S([O-])(=O)=O,0,G1,A,None,None,Negative
A-3847,"InChI=1S/C6H8O3/c1-4(7)5-2-3-9-6(5)8/h5H,2-3H2,1H3",0.397509321,CC(=O)C1CCOC1=O,0.10205466,G3,A,None,Non Valid pH,Uncharged
A-3850,"InChI=1S/C10H10O7S.Na/c1-16-9(11)6-3-7(10(12)17-2)5-8(4-6)18(13,14)15;/h3-5H,1-2H3,(H,13,14,15);/q;+1/p-1",-0.966481992,COC(=O)C1=CC(=CC(=C1)C(=O)OC)S([O-])(=O)=O,0,G1,A,None,None,Negative
A-3852,InChI=1S/ClH.Na/h1H;/q;+1/p-1,0.734326761,[Cl-],0,G1,A,None,None,Negative
A-3853,"InChI=1S/C5H8O4.2Li/c6-4(7)2-1-3-5(8)9;;/h1-3H2,(H,6,7)(H,8,9);;/q;2*+1/p-2",0.342754077,[O-]C(=O)CCCC([O-])=O,0,G1,A,None,None,Negative
A-3854,"InChI=1S/C6H8O3/c1-3-5(7)6(8)4(2)9-3/h3,8H,1-2H3",0.390669896,CC1OC(C)=C(O)C1=O,0,G1,A,None,None,Uncharged
A-3855,"InChI=1S/C14H12O6S.Na/c1-20-12-8-11(15)10(7-13(12)21(17,18)19)14(16)9-5-3-2-4-6-9;/h2-8,15H,1H3,(H,17,18,19);/q;+1/p-1",-0.022384851,COC1=CC([O-])=C(C=C1S([O-])(=O)=O)C(=O)C1=CC=CC=C1,0,G1,A,None,None,Negative
A-3858,"InChI=1S/C8H18O2/c1-6(2)7(10)8(3,4)5-9/h6-7,9-10H,5H2,1-4H3",-0.666725926,CC(C)C(O)C(C)(C)CO,0.109787037,G3,A,None,None,Uncharged
A-3865,"InChI=1S/C11H22O3/c1-4-6-7-10(5-2)8-14-11(13)9(3)12/h9-10,12H,4-8H2,1-3H3/t9-,10?/m0/s1",-2.67352571,CCCCC(CC)COC(=O)C(C)O,0,G1,A,None,None,Uncharged
A-3866,InChI=1S/C5H8O/c6-5-3-1-2-4-5/h1-4H2,0.553677557,O=C1CCCC1,0,G1,A,None,None,Uncharged
A-3867,"InChI=1S/C2H7N.ClH/c1-3-2;/h3H,1-2H3;1H",1.565718592,C[NH2+]C,0,G1,A,None,None,Positive
A-3868,InChI=1S/Mn.H2S/h;1H2,-4.159911756,[Mn],0,G1,A,None,None,Uncharged
A-3869,"InChI=1S/C2H4O2/c1-4-2-3/h2H,1H3",0.698593779,COC=O,0.057696709,G3,A,None,None,Uncharged
A-3870,"InChI=1S/C16H10O10S3.3Na/c17-11-5-12(27(18,19)20)8-3-4-10-14(29(24,25)26)6-13(28(21,22)23)9-2-1-7(11)15(8)16(9)10;;;/h1-6,17H,(H,18,19,20)(H,21,22,23)(H,24,25,26);;;/q;3*+1/p-3",-0.242535631,OC1=CC(=C2C=CC3=C4C(C=CC1=C24)=C(C=C3S([O-])(=O)=O)S([O-])(=O)=O)S([O-])(=O)=O,0,G1,A,None,None,Negative
A-3872,"InChI=1S/C9H10O3/c1-5-3-2-4-6-7(5)9(11)12-8(6)10/h2-3,5-7H,4H2,1H3",-0.736268462,CC1C=CCC2C1C(=O)OC2=O,0,G1,A,None,None,Uncharged
A-3873,"InChI=1S/C7H13NO/c1-5(2)7(9)8-6(3)4/h6H,1H2,2-4H3,(H,8,9)",-0.620142884,CC(C)NC(=O)C(C)=C,0,G1,A,None,None,Uncharged
A-3874,"InChI=1S/C36H36N12O8S2.2Na/c49-19-17-37-31-43-33(39-25-7-3-1-4-8-25)47-35(45-31)41-27-15-13-23(29(21-27)57(51,52)53)11-12-24-14-16-28(22-30(24)58(54,55)56)42-36-46-32(38-18-20-50)44-34(48-36)40-26-9-5-2-6-10-26;;/h1-16,21-22,49-50H,17-20H2,(H,51,52,53)(H,54,55,56)(H3,37,39,41,43,45,47)(H3,38,40,42,44,46,48);;/q;2*+1/p-2/b12-11+;;",-1.4592144,OCCNC1=NC(NC2=CC=CC=C2)=NC(NC2=CC=C(C=CC3=CC=C(NC4=NC(NCCO)=NC(NC5=CC=CC=C5)=N4)C=C3S([O-])(=O)=O)C(=C2)S([O-])(=O)=O)=N1,0,G1,A,None,Non Valid pH,Negative
A-3875,"InChI=1S/C8H18O2/c1-5-9-6-7-10-8(2,3)4/h5-7H2,1-4H3",-0.687915225,CCOCCOC(C)(C)C,0.045540235,G3,A,None,None,Uncharged
A-3876,"InChI=1S/C7H14O3/c1-6(9-3)4-5-10-7(2)8/h6H,4-5H2,1-3H3",-0.687784528,COC(C)CCOC(C)=O,0.47281938,G5,A,None,None,Uncharged
A-3877,"InChI=1S/C15H32O4S.Na/c1-2-3-4-5-6-7-8-9-10-11-12-13-14-15-19-20(16,17)18;/h2-15H2,1H3,(H,16,17,18);/q;+1/p-1",-1.042005529,CCCCCCCCCCCCCCCOS([O-])(=O)=O,0.460409377,G3,A,None,None,Negative
A-3878,"InChI=1S/CH4N2O2S/c2-1(3)6(4)5/h(H3,2,3)(H,4,5)",-0.556792816,NC(=[NH2+])S([O-])=O,0,G1,A,None,None,Zwitterion
A-3880,"InChI=1S/C8H16O3/c1-6(2)7(9)10-11-8(3,4)5/h6H,1-5H3",-1.607002567,CC(C)C(=O)OOC(C)(C)C,0,G1,A,None,Unstable,Uncharged
A-3881,"InChI=1S/C10H14O2/c1-11-10(12-2)8-9-6-4-3-5-7-9/h3-7,10H,8H2,1-2H3",-1.629618671,COC(CC1=CC=CC=C1)OC,0,G1,A,None,Non Valid pH,Uncharged
A-3882,"InChI=1S/C3H6N6.H3O4P/c4-1-7-2(5)9-3(6)8-1;1-5(2,3)4/h(H6,4,5,6,7,8,9);(H3,1,2,3,4)",-1.759410193,NC1=NC(N)=[NH+]C(N)=N1,0.056971676,G3,A,None,Cosolvent Buffer,Positive
A-3883,"InChI=1S/C11H12O2/c1-2-4-10-8(3-1)5-9-6-12-7-13-11(9)10/h1-4,9,11H,5-7H2",-1.656093273,C1C2COCOC2C2=CC=CC=C12,0,G1,A,None,None,Uncharged
A-3884,"InChI=1S/C13H16O4/c1-8(14)11(9(2)15)6-10-4-5-12(16)13(7-10)17-3/h4-5,7,11,16H,6H2,1-3H3",-1.786365949,COC1=CC(CC(=C(C)O)C(C)=O)=CC=C1O,0,G1,A,None,None,Uncharged
A-3889,"InChI=1S/C6H13NO4/c8-2-3-5(10)6(11)4(9)1-7-3/h3-11H,1-2H2/t3-,4+,5-,6-/m1/s1",0.404352043,OCC1[NH2+]CC(O)C(O)C1O,0,G1,A,None,None,Positive
A-3890,"InChI=1S/C7H11ClO4/c1-3-11-6(9)5(8)7(10)12-4-2/h5H,3-4H2,1-2H3",-1.720972355,CCOC(=O)C(Cl)C(=O)OCC,0,G1,A,None,Non Valid pH,Uncharged
A-3891,"InChI=1S/C17H12F3N3O4S.Na/c18-17(19,20)11-3-1-2-4-13(11)22-23-16-12(21)6-5-9-7-10(28(25,26)27)8-14(24)15(9)16;/h1-8,21-23H,(H,25,26,27);/q;+1/p-1",-2.068630062,NC1=CC=C2C=C(C=C([O-])C2=C1N=NC1=CC=CC=C1C(F)(F)F)S([O-])(=O)=O,0,G1,A,None,None,Negative
A-3892,"InChI=1S/C14H22O6/c1-11(2)13(15)19-9-7-17-5-6-18-8-10-20-14(16)12(3)4/h1,3,5-10H2,2,4H3",-1.900555252,CC(=C)C(=O)OCCOCCOCCOC(=O)C(C)=C,0,G1,A,None,None,Uncharged
A-3893,"InChI=1S/C15H30N2/c1-10-7-12(3-5-14(10)16)9-13-4-6-15(17)11(2)8-13/h10-15H,3-9,16-17H2,1-2H3",-1.821038361,CC1CC(CC2CCC([NH3+])C(C)C2)CCC1[NH3+],0.131434931,G5,A,None,None,Positive
A-3895,"InChI=1S/C8H10O/c1-6-3-4-7(2)8(9)5-6/h3-5,9H,1-2H3",-1.537582757,CC1=CC=C(C)C(O)=C1,0.023472016,G3,A,None,None,Uncharged
A-3896,"InChI=1S/C10H14N5O7P/c11-8-5-9(13-2-12-8)15(3-14-5)10-7(17)6(16)4(22-10)1-21-23(18,19)20/h2-4,6-7,10,16-17H,1H2,(H2,11,12,13)(H2,18,19,20)",-1.995302619,NC1=C2N=CN(C3OC(COP([O-])([O-])=O)C(O)C3O)C2=NC=N1,0.22735131,G3,A,None,None,Negative
A-3897,"InChI=1S/C2H3Cl3/c3-1-2(4)5/h2H,1H2",-1.581104063,ClCC(Cl)Cl,0.050652031,G3,A,None,None,Uncharged
A-3898,"InChI=1S/C9H12O2/c1-5-4-8(10)6(2)7(3)9(5)11/h4,10-11H,1-3H3",-1.638326634,CC1=CC(O)=C(C)C(C)=C1O,0,G1,A,None,None,Uncharged
A-3900,"InChI=1S/C8H11NO6S2/c9-7-1-3-8(4-2-7)16(10,11)6-5-15-17(12,13)14/h1-4H,5-6,9H2,(H,12,13,14)",-1.90511867,NC1=CC=C(C=C1)S(=O)(=O)CCOS([O-])(=O)=O,0,G1,A,None,Non Valid pH,Negative
A-3903,"InChI=1S/C12H15N3O3/c1-4-7-13-10(16)14(8-5-2)12(18)15(9-6-3)11(13)17/h4-6H,1-3,7-9H2",-1.852601969,C=CCN1C(=O)N(CC=C)C(=O)N(CC=C)C1=O,0,G1,A,None,None,Uncharged
A-3904,"InChI=1S/C6H7N3O2/c1-11-6(10)4-5(7)9-3-2-8-4/h2-3H,1H3,(H2,7,9)",-1.642266052,COC(=O)C1=NC=CN=C1N,0,G1,A,None,Non Valid pH,Uncharged
A-3905,"InChI=1S/C3H6N6/c4-1-7-2(5)9-3(6)8-1/h(H6,4,5,6,7,8,9)",-1.559215049,NC1=NC(N)=[NH+]C(N)=N1,0.076739538,G5,A,None,None,Positive
A-3907,"InChI=1S/CH4N4O2/c2-1(3)4-5(6)7/h(H4,2,3,4)",-1.485842464,NC(N)=N[N+]([O-])=O,0.083963435,G5,A,None,None,PureChargeSeparation
A-3908,"InChI=1S/C7H6F3N/c8-7(9,10)5-3-1-2-4-6(5)11/h1-4H,11H2",-1.675686709,NC1=CC=CC=C1C(F)(F)F,0,G1,A,None,None,Uncharged
A-3909,"InChI=1S/C12H16N2O2/c1-10(15)13-6-8-14(9-7-13)11-2-4-12(16)5-3-11/h2-5,16H,6-9H2,1H3",-1.817914488,CC(=O)N1CCN(CC1)C1=CC=C(O)C=C1,0,G1,A,None,None,Uncharged
A-3910,"InChI=1S/C15H19NO4/c1-3-12(17-9-15-10-20-15)4-2-11(1)16(5-13-7-18-13)6-14-8-19-14/h1-4,13-15H,5-10H2",-1.919234725,C(OC1=CC=C(C=C1)N(CC1CO1)CC1CO1)C1CO1,0,G1,A,None,Non Valid pH,Uncharged
A-3911,"InChI=1S/CH6N4.CH2O3/c2-1(3)5-4;2-1(3)4/h4H2,(H4,2,3,5);(H2,2,3,4)",-1.615379285,N[NH+]=C(N)N,0.111441387,G5,A,None,Multi-constituent Substances,Positive
A-3914,"InChI=1S/C12H13N/c1-13-9-11-7-4-6-10-5-2-3-8-12(10)11/h2-8,13H,9H2,1H3",-1.715098888,C[NH2+]CC1=CC=CC2=CC=CC=C12,0,G1,A,None,None,Positive
A-3915,"InChI=1S/C11H13NO3/c1-8(13)7-11(14)12-9-5-3-4-6-10(9)15-2/h3-6H,7H2,1-2H3,(H,12,14)",-1.805905521,COC1=CC=CC=C1NC(=O)CC(C)=O,0,G1,A,None,None,Uncharged
A-3919,"InChI=1S/C6H14O/c1-5(2)7-6(3)4/h5-6H,1-4H3",-1.516592758,CC(C)OC(C)C,0.273711324,G5,A,None,None,Uncharged
A-3921,"InChI=1S/C3H7Br/c1-3(2)4/h3H,1-2H3",-1.598518701,CC(C)Br,0.018480608,G5,A,None,None,Uncharged
A-3922,"InChI=1S/C7H9NO2S/c1-6-2-4-7(5-3-6)11(8,9)10/h2-5H,1H3,(H2,8,9,10)",-1.742195335,CC1=CC=C(C=C1)S(N)(=O)=O,0,G1,A,None,None,Uncharged
A-3924,"InChI=1S/C4H10S/c1-3-5-4-2/h3-4H2,1-2H3",-1.468024827,CCSCC,0.064012413,G3,A,None,None,Uncharged
A-3926,"InChI=1S/C8H14O/c1-7(2)5-4-6-8(3)9/h5H,4,6H2,1-3H3",-1.621048971,CC(C)=CCCC(C)=O,0,G1,A,None,None,Uncharged
A-3929,"InChI=1S/C12H26O3/c1-3-5-7-13-9-11-15-12-10-14-8-6-4-2/h3-12H2,1-2H3",-1.862006084,CCCCOCCOCCOCCCC,0.180942274,G5,A,None,None,Uncharged
A-3931,"InChI=1S/C10H18O/c1-7(2)9-5-4-8(3)6-10(9)11/h8-11H,1,4-6H2,2-3H3",-1.711112365,CC1CCC(C(O)C1)C(C)=C,0,G1,A,None,Non Valid pH,Uncharged
A-3932,"InChI=1S/C8H11NO/c1-6-3-4-8(10-2)7(9)5-6/h3-5H,9H2,1-2H3",-1.660175876,COC1=CC=C(C)C=C1N,0,G1,A,None,None,Uncharged
A-3933,"InChI=1S/C10H6O8.C9H10N2/c11-7(12)3-1-4(8(13)14)6(10(17)18)2-5(3)9(15)16;1-2-4-8(5-3-1)9-10-6-7-11-9/h1-2H,(H,11,12)(H,13,14)(H,15,16)(H,17,18);1-5H,6-7H2,(H,10,11)",-2.125310985,[O-]C(=O)C1=CC(C([O-])=O)=C(C=C1C([O-])=O)C([O-])=O,0,G1,A,None,None,Negative
A-3934,"InChI=1S/C6H6ClN/c7-5-1-3-6(8)4-2-5/h1-4H,8H2",-1.628640918,NC1=CC=C(Cl)C=C1,0.065972331,G5,A,None,None,Uncharged
A-3935,"InChI=1S/C8H16O/c1-4-7(3)6-8(9)5-2/h7H,4-6H2,1-3H3",-1.630817582,CCC(C)CC(=O)CC,0,G1,A,None,None,Uncharged
A-3937,"InChI=1S/3C5H8O2.Al/c3*1-4(6)3-5(2)7;/h3*3,6H,1-2H3;/q;;;+3/p-3",-2.033837746,CC(O)=CC(C)=O,0,G1,A,None,None,Uncharged
A-3939,InChI=1S/CHClF2/c2-1(3)4/h1H,-1.459734159,FC(F)Cl,0.01733292,G3,A,None,None,Uncharged
A-3941,"InChI=1S/C22H22N4O13S4.K.Na/c1-13-20(22(27)26(25-13)14-5-7-15(8-6-14)40(28,29)12-11-39-43(36,37)38)24-23-18-10-9-16-17(21(18)42(33,34)35)3-2-4-19(16)41(30,31)32;;/h2-10,20,22,27H,11-12H2,1H3,(H,30,31,32)(H,33,34,35)(H,36,37,38);;/q;2*+1/p-2",-0.392839827,CC1=NN(C(O)C1N=NC1=C(C2=CC=CC(=C2C=C1)S([O-])(=O)=O)S([O-])(=O)=O)C1=CC=C(C=C1)S(=O)(=O)CCOS([O-])(=O)=O,0,G1,A,None,None,Negative