ID,InChI,Solubility,SMILEScurated,SD,Group,Dataset,Composition,Error,Charge
A-5097,"InChI=1S/C19H38N2S4/c1-5-9-13-20(14-10-6-2)18(22)24-17-25-19(23)21(15-11-7-3)16-12-8-4/h5-17H2,1-4H3",-6.240523569,CCCCN(CCCC)C(=S)SCSC(=S)N(CCCC)CCCC,0,G1,A,None,None,Uncharged
A-5100,"InChI=1S/C22H20N4O6/c1-3-32-22(28)19-18-12-13-24(14-4-6-16(7-5-14)26(29)30)21(27)20(18)25(23-19)15-8-10-17(31-2)11-9-15/h4-11H,3,12-13H2,1-2H3",-6.618719326,CCOC(=O)C1=NN(C2=C1CCN(C1=CC=C(C=C1)[N+]([O-])=O)C2=O)C1=CC=C(OC)C=C1,0,G1,A,None,None,PureChargeSeparation
A-5101,"InChI=1S/C23H49NO/c1-4-5-6-7-8-9-10-11-12-13-14-15-16-17-18-19-22-25-23-20-21-24(2)3/h4-23H2,1-3H3",-6.85205403,CCCCCCCCCCCCCCCCCCOCCC[NH+](C)C,0,G1,A,None,None,Positive
A-5103,InChI=1S/Ta,-6.929174184,[Ta],0,G1,A,None,None,Uncharged
A-5104,"InChI=1S/C14H12O4/c1-18-9-6-7-11(13(16)8-9)14(17)10-4-2-3-5-12(10)15/h2-8,15-16H,1H3",-7.273884108,COC1=CC=C(C(=O)C2=CC=CC=C2O)C([O-])=C1,0,G1,A,None,None,Negative
A-5106,"InChI=1S/C27H32N4O4/c32-24-7-3-1-5-17-30(24)26(34)28-22-13-9-20(10-14-22)19-21-11-15-23(16-12-21)29-27(35)31-18-6-2-4-8-25(31)33/h9-16H,1-8,17-19H2,(H,28,34)(H,29,35)",-7.763261262,O=C(NC1=CC=C(CC2=CC=C(NC(=O)N3CCCCCC3=O)C=C2)C=C1)N1CCCCCC1=O,0,G1,A,None,None,Uncharged
A-5107,"InChI=1S/C20H16OS/c1-15-7-11-18(12-8-15)22-19-13-9-17(10-14-19)20(21)16-5-3-2-4-6-16/h2-14H,1H3",-7.61540826,CC1=CC=C(SC2=CC=C(C=C2)C(=O)C2=CC=CC=C2)C=C1,0,G1,A,None,None,Uncharged
A-5110,"InChI=1S/C18H38S3/c1-13(15(3,4)5)17(9,10)19-21-20-18(11,12)14(2)16(6,7)8/h13-14H,1-12H3",-9.129966133,CC(C(C)(C)C)C(C)(C)SSSC(C)(C)C(C)C(C)(C)C,0,G1,A,None,None,Uncharged
A-5111,InChI=1S/2NO3.Zn/c2*2-1(3)4;/q2*-1;+2,0.721755153,[O-][N+]([O-])=O,0,G1,A,None,None,Negative
A-5112,"InChI=1S/2C10H20O2.Ba/c2*1-9(2,3)7-10(4,5)6-8(11)12;/h2*6-7H2,1-5H3,(H,11,12);/q;;+2/p-2",-1.698832456,CC(C)(C)CC(C)(C)CC([O-])=O,0.276511443,G3,A,None,None,Negative
A-5113,"InChI=1S/C16H36P.BrH/c1-5-9-13-17(14-10-6-2,15-11-7-3)16-12-8-4;/h5-16H2,1-4H3;1H/q+1;/p-1",0.41483097,CCCC[P+](CCCC)(CCCC)CCCC,0,G1,A,None,None,Positive
A-5115,"InChI=1S/C3H9NO2/c4-3(1-5)2-6/h3,5-6H,1-2,4H2",0.974427117,[NH3+]C(CO)CO,0,G1,A,None,None,Positive
A-5116,"InChI=1S/2Ag.H2O4S/c;;1-5(2,3)4/h;;(H2,1,2,3,4)/q2*+1;",-1.58498354,[O-]S([O-])(=O)=O,0,G1,A,None,None,Negative
A-5117,InChI=1S/2ClH.Mn.4H2O/h2*1H;;4*1H2/q;;+2;;;;/p-2,0.582641307,[Cl-].[Cl-].[Mn++],0,G1,A,None,None,Negative
A-5118,"InChI=1S/C4H11NO3/c5-4(1-6,2-7)3-8/h6-8H,1-3,5H2",0.790628369,[NH3+]C(CO)(CO)CO,0.069497629,G5,A,None,None,Positive
A-5119,"InChI=1S/C6H15N.BrH/c1-4-7(5-2)6-3;/h4-6H2,1-3H3;1H",0.595197285,CC[NH+](CC)CC,0,G1,A,None,None,Positive
A-5122,"InChI=1S/C7H18NO3.CH4O4S/c1-8(2-5-9,3-6-10)4-7-11;1-5-6(2,3)4/h9-11H,2-7H2,1H3;1H3,(H,2,3,4)/q+1;/p-1",0.39266642,C[N+](CCO)(CCO)CCO,0,G1,A,None,Cosolvent Buffer,Positive
A-5124,"InChI=1S/C28H42O7S2.2Na/c1-2-3-4-5-6-7-8-9-10-11-12-13-14-15-19-24-25(21-18-23-27(24)36(29,30)31)35-26-20-16-17-22-28(26)37(32,33)34;;/h16-18,20-23H,2-15,19H2,1H3,(H,29,30,31)(H,32,33,34);;/q;2*+1/p-2",0.222765354,CCCCCCCCCCCCCCCCC1=C(OC2=CC=CC=C2S([O-])(=O)=O)C=CC=C1S([O-])(=O)=O,0,G1,A,None,None,Negative
A-5125,"InChI=1S/C4H6O4S2.2H3N/c5-3(6)1-9-10-2-4(7)8;;/h1-2H2,(H,5,6)(H,7,8);2*1H3",0.459603052,[O-]C(=O)CSSCC([O-])=O,0,G1,A,None,None,Negative
A-5126,"InChI=1S/C24H50O12/c25-7-1-13-31-19-21(33-15-3-9-27)23(35-17-5-11-29)24(36-18-6-12-30)22(34-16-4-10-28)20-32-14-2-8-26/h21-30H,1-20H2",0.053341445,OCCCOCC(OCCCO)C(OCCCO)C(OCCCO)C(COCCCO)OCCCO,0,G1,A,None,None,Uncharged
A-5127,"InChI=1S/C6H6N4O/c1-4-2-5(11)10-6(9-4)7-3-8-10/h2-3H,1H3,(H,7,8,9)",-1.347195531,CC1=CC(=O)N2N=CN=C2N1,0.005401161,G3,A,None,None,Uncharged
A-5128,"InChI=1S/C10H16N5O13P3.2Na/c11-8-5-9(13-2-12-8)15(3-14-5)10-7(17)6(16)4(26-10)1-25-30(21,22)28-31(23,24)27-29(18,19)20;;/h2-4,6-7,10,16-17H,1H2,(H,21,22)(H,23,24)(H2,11,12,13)(H2,18,19,20);;/q;2*+1/p-2/t4-,6-,7-,10-;;/m1../s1",0.016887962,NC1=C2N=CN(C3OC(COP([O-])(=O)OP([O-])(=O)OP(O)([O-])=O)C(O)C3O)C2=NC=N1,0,G1,A,None,None,Negative
A-5129,"InChI=1S/C4H10N3O5P.2Na/c1-7(2-3(8)9)4(5)6-13(10,11)12;;/h2H2,1H3,(H,8,9)(H4,5,6,10,11,12);;/q;2*+1/p-2",0.312658284,CN(CC([O-])=O)C(N)=[NH+]P([O-])([O-])=O,0,G1,A,None,None,Zwitterion
A-5130,"InChI=1S/2C8H16O2.Ba/c2*1-3-5-6-7(4-2)8(9)10;/h2*7H,3-6H2,1-2H3,(H,9,10);/q;;+2/p-2",-0.905288847,[Ba++].CCCCC(CC)C([O-])=O.CCCCC(CC)C([O-])=O,0.251490671,G3,A,None,Multi-constituent Substances,Negative
A-5131,"InChI=1S/C7H14O8.Na/c8-1-2(9)3(10)4(11)5(12)6(13)7(14)15;/h2-6,8-13H,1H2,(H,14,15);/q;+1/p-1/t2-,3-,4+,5-,6-;/m1./s1",0.317070198,OCC(O)C(O)C(O)C(O)C(O)C([O-])=O,0,G1,A,None,None,Negative
A-5132,"InChI=1S/C5H6O5.2Na/c6-3(5(9)10)1-2-4(7)8;;/h1-2H2,(H,7,8)(H,9,10);;/q;2*+1/p-2",0.429525605,[O-]C(=O)CCC(=O)C([O-])=O,0,G1,A,None,None,Negative
A-5133,InChI=1S/C10H24N2/c11-9-7-5-3-1-2-4-6-8-10-12/h1-12H2,1.527701003,[NH3+]CCCCCCCCCC[NH3+],0,G1,A,None,None,Positive
A-5135,"InChI=1S/C10H22O.C4H6O7S.2Na/c1-10(2)8-6-4-3-5-7-9-11;5-3(6)1-2(4(7)8)12(9,10)11;;/h10-11H,3-9H2,1-2H3;2H,1H2,(H,5,6)(H,7,8)(H,9,10,11);;/q;;2*+1",0.08106542,[O-]C(=O)CC(C([O-])=O)S([O-])(=O)=O,0,G1,A,None,Cosolvent Buffer,Negative
A-5136,"InChI=1S/C5H9NO4.2Na/c6-3(5(9)10)1-2-4(7)8;;/h3H,1-2,6H2,(H,7,8)(H,9,10);;/q;2*+1/p-2/t3-;;/m0../s1",0.371965463,[NH3+]C(CCC([O-])=O)C([O-])=O,0,G1,A,None,None,Zwitterion
A-5137,"InChI=1S/2C7H6O2.Zn/c2*8-7(9)6-4-2-1-3-5-6;/h2*1-5H,(H,8,9);/q;;+2/p-2",-1.816841725,[O-]C(=O)C1=CC=CC=C1,0,G1,A,None,None,Negative
A-5138,"InChI=1S/C3H6O/c1-3-2-4-3/h3H,2H2,1H3",0.832570488,CC1CO1,0.715218145,G4,A,None,None,Uncharged
A-5139,"InChI=1S/C8H15NO2/c1-3-5-6-11-7-9-8(10)4-2/h4H,2-3,5-7H2,1H3,(H,9,10)",-0.653663028,CCCCOCNC(=O)C=C,0,G1,A,None,None,Uncharged
A-5141,InChI=1S/BrH/h1H/p-1,-0.376229243,[Br-],0,G1,A,None,None,Negative
A-5142,"InChI=1S/C18H35NO4.Na/c1-2-3-4-5-6-7-8-9-10-11-14-19(15-12-17(20)21)16-13-18(22)23;/h2-16H2,1H3,(H,20,21)(H,22,23);/q;+1/p-1",-0.040729633,CCCCCCCCCCCC[NH+](CCC([O-])=O)CCC([O-])=O,0,G1,A,None,None,Zwitterion
A-5143,"InChI=1S/C21H39NO3.Na/c1-3-4-5-6-7-8-9-10-11-12-13-14-15-16-17-18-20(23)22(2)19-21(24)25;/h10-11H,3-9,12-19H2,1-2H3,(H,24,25);/q;+1/p-1/b11-10+;",-0.097522226,CCCCCCCCC=CCCCCCCCC(=O)N(C)CC([O-])=O,0,G1,A,None,None,Negative
A-5145,"InChI=1S/C5H11NO3/c1-4(8)5(9)6-2-3-7/h4,7-8H,2-3H2,1H3,(H,6,9)",1.307032379,CC(O)C(=O)NCCO,0,G1,A,None,None,Uncharged
A-5146,"InChI=1S/3Ba.2H3O4P/c;;;2*1-5(2,3)4/h;;;2*(H3,1,2,3,4)/q3*+2;;/p-6",-1.345611894,OP([O-])([O-])=O,0,G1,A,None,None,Negative
A-5147,"InChI=1S/C5H10O2/c6-4-5-2-1-3-7-5/h5-6H,1-4H2",0.38877392,OCC1CCCO1,0.30101304,G3,A,None,None,Uncharged
A-5148,"InChI=1S/C6H10O3.H3O4P/c1-5(2)6(8)9-4-3-7;1-5(2,3)4/h7H,1,3-4H2,2H3;(H3,1,2,3,4)",-0.960255718,CC(=C)C(=O)OCCO,0,G1,A,None,Cosolvent Buffer,Uncharged
A-5152,"InChI=1S/C8H8O3S.Na/c1-2-7-3-5-8(6-4-7)12(9,10)11;/h2-6H,1H2,(H,9,10,11);/q;+1/p-1",-0.033251081,[O-]S(=O)(=O)C1=CC=C(C=C)C=C1,0,G1,A,None,None,Negative
A-5154,"InChI=1S/C5H8O2/c1-4(6)3-5(2)7/h3H2,1-2H3",0.186448508,CC(O)=CC(C)=O,0.052052478,G5,A,None,None,Uncharged
A-5155,"InChI=1S/C5H8O4/c1-8-4(6)3-5(7)9-2/h3H2,1-2H3",0.027341968,COC(=O)CC(=O)OC,0,G1,A,None,None,Uncharged
A-5156,"InChI=1S/2C6H8O7.3Mg/c2*7-3(8)1-6(13,5(11)12)2-4(9)10;;;/h2*13H,1-2H2,(H,7,8)(H,9,10)(H,11,12);;;",-1.546125822,OC(CC([O-])=O)(CC([O-])=O)C([O-])=O,0.134422656,G3,A,None,None,Negative
A-5157,"InChI=1S/C7H14O8.Na/c8-1-2(9)3(10)4(11)5(12)6(13)7(14)15;/h2-6,8-13H,1H2,(H,14,15);/q;+1/p-1/t2-,3-,4+,5-,6?;/m1./s1",0.70666632,OCC(O)C(O)C(O)C(O)C(O)C([O-])=O,0,G1,A,None,None,Negative
A-5160,"InChI=1S/C5H13N3/c1-7(2)5(6)8(3)4/h6H,1-4H3",0.938622926,CN(C)C(=[NH2+])N(C)C,0,G1,A,None,None,Positive
A-5161,"InChI=1S/C5H10O4S/c6-1-4(7)2-9-5(8)3-10/h4,6-7,10H,1-3H2",0.779374207,OCC(O)COC(=O)CS,0,G1,A,None,None,Uncharged
A-5162,"InChI=1S/C8H18O5/c9-1-3-11-5-7-13-8-6-12-4-2-10/h9-10H,1-8H2",0.711690398,OCCOCCOCCOCCO,0,G1,A,None,None,Uncharged
A-5163,"InChI=1S/C6H14O2/c1-6(2-4-7)3-5-8/h6-8H,2-5H2,1H3",0.927470714,CC(CCO)CCO,0,G1,A,None,None,Uncharged
A-5164,"InChI=1S/C4H11NO2.C2H4O2/c6-3-1-5-2-4-7;1-2(3)4/h5-7H,1-4H2;1H3,(H,3,4)",0.782018876,OCC[NH2+]CCO,0,G1,A,None,Cosolvent Buffer,Positive
A-5166,"InChI=1S/CH4O/c1-2/h2H,1H3",1.494280384,CO,0.037859808,G3,A,None,None,Uncharged
A-5167,"InChI=1S/C6H15NO3.C2H4O2/c8-4-1-7(2-5-9)3-6-10;1-2(3)4/h8-10H,1-6H2;1H3,(H,3,4)",0.679351138,OCC[NH+](CCO)CCO,0.238560627,G3,A,None,Cosolvent Buffer,Positive
A-5168,InChI=1S/C4H8O2S/c5-7(6)3-1-2-4-7/h1-4H2,-0.079806903,O=S1(=O)CCCC1,0,G1,A,None,None,Uncharged
A-5169,"InChI=1S/C6H10O3/c1-5(2)6(8)9-4-3-7/h7H,1,3-4H2,2H3",-0.114420814,CC(=C)C(=O)OCCO,0,G1,A,None,None,Uncharged
A-5171,"InChI=1S/C9H13NO2.ClH/c1-10-6-9(12)7-3-2-4-8(11)5-7;/h2-5,9-12H,6H2,1H3;1H",-0.308924931,C[NH2+]CC(O)C1=CC=CC(O)=C1,0,G1,A,None,None,Positive
A-5172,"InChI=1S/C6H14O2/c1-6(2,8-3)4-5-7/h7H,4-5H2,1-3H3",-0.072529286,COC(C)(C)CCO,0,G1,A,None,None,Uncharged
A-5173,"InChI=1S/2C8H19O2PS2.Zn/c2*1-3-5-7-9-11(12,13)10-8-6-4-2;/h2*3-8H2,1-2H3,(H,12,13);/q;;+2/p-2",-2.50838394,CCCCOP([S-])(=S)OCCCC,0,G1,A,None,None,Negative
A-5174,"InChI=1S/C20H14N2O4S.Na/c23-18-11-9-13-5-1-2-6-14(13)20(18)22-21-17-10-12-19(27(24,25)26)16-8-4-3-7-15(16)17;/h1-12,21H,(H,24,25,26);/q;+1/p-1/b22-20+;",-2.426393048,[O-]S(=O)(=O)C1=CC=C(NN=C2C(=O)C=CC3=CC=CC=C23)C2=CC=CC=C12,0,G1,A,None,None,Negative
A-5176,"InChI=1S/2C8H16O2.Zn/c2*1-3-5-6-7(4-2)8(9)10;/h2*7H,3-6H2,1-2H3,(H,9,10);/q;;+2/p-2",0.455435409,CCCCC(CC)C([O-])=O,0.364685669,G3,A,None,None,Negative
A-5177,"InChI=1S/C8H19O2PS2.Na/c1-5-7(3)9-11(12,13)10-8(4)6-2;/h7-8H,5-6H2,1-4H3,(H,12,13);/q;+1/p-1",-2.42214317,CCC(C)OP([S-])(=S)OC(C)CC,0,G1,A,None,None,Negative
A-5179,"InChI=1S/C15H29NO3/c1-13(2)9-5-3-6-10-14(17)16-12-8-4-7-11-15(18)19/h13H,3-12H2,1-2H3,(H,16,17)(H,18,19)",-2.770853612,CC(C)CCCCCC(=O)NCCCCCC([O-])=O,0.009241703,G3,A,None,None,Negative
A-5182,"InChI=1S/C9H18O2/c1-2-3-4-5-6-7-8-9(10)11/h2-8H2,1H3,(H,10,11)",-2.722197764,CCCCCCCCC([O-])=O,0.393230798,G5,A,None,None,Negative
A-5183,"InChI=1S/C11H8O3/c12-10-4-3-7-5-9(11(13)14)2-1-8(7)6-10/h1-6,12H,(H,13,14)",-3.278942885,OC1=CC=C2C=C(C=CC2=C1)C([O-])=O,0,G1,A,None,None,Negative
A-5184,InChI=1S/3Ni.S2/c;;;1-2,-4.514309168,[Ni][Ni][Ni]=S=S,0,G1,A,None,None,Uncharged
A-5185,"InChI=1S/C12H16/c1-5-10-6-8-11(9-7-10)12(2,3)4/h5-9H,1H2,2-4H3",-4.563351028,CC(C)(C)C1=CC=C(C=C)C=C1,0,G1,A,None,None,Uncharged
A-5186,"InChI=1S/C9H9ClO/c1-6-3-7(2)5-8(4-6)9(10)11/h3-5H,1-2H3",-3.32928972,CC1=CC(=CC(C)=C1)C(Cl)=O,0,G1,A,None,None,Uncharged
A-5187,"InChI=1S/CH2O3.2Cu.2H2O/c2-1(3)4;;;;/h(H2,2,3,4);;;2*1H2/q;2*+2;;/p-4",-5.143219117,OC([O-])=O,2.073429835,G4,A,None,None,Negative
A-5188,InChI=1S/C15H11NO/c1-3-7-12(8-4-1)14-11-16-15(17-14)13-9-5-2-6-10-13/h1-11H,-5.553210296,O1C(=CN=C1C1=CC=CC=C1)C1=CC=CC=C1,0,G1,A,None,None,Uncharged
A-5189,InChI=1S/Mn.2O,-6.161048404,O=[Mn]=O,0,G1,A,None,None,Uncharged
A-5190,"InChI=1S/C5H13NO2/c1-2-5(6,3-7)4-8/h7-8H,2-4,6H2,1H3",0.901578533,CCC([NH3+])(CO)CO,0.011160734,G3,A,None,None,Positive
A-5191,InChI=1S/2C5H5N.2Cr.2H2O.5O/c2*1-2-4-6-5-3-1;;;;;;;;;/h2*1-5H;;;2*1H2;;;;;/q;;2*+1;;;;;;;/p-2,0.399087129,[O-][Cr](=O)(=O)O[Cr]([O-])(=O)=O,0,G1,A,None,Cosolvent Buffer,Negative
A-5193,"InChI=1S/C6H14N2/c7-5-3-1-2-4-6(5)8/h5-6H,1-4,7-8H2/p+2/t5-,6+",0.889006483,[NH3+]C1CCCCC1[NH3+],0,G1,A,None,None,Positive
A-5194,"InChI=1S/C2H5OS.Na/c3-1-2-4;/h4H,1-2H2;/q-1;+1",0.953730344,OCCS,0,G1,A,None,None,Uncharged
A-5195,"InChI=1S/C12H15N3O6/c16-10-13(1-7-4-19-7)11(17)15(3-9-6-21-9)12(18)14(10)2-8-5-20-8/h7-9H,1-6H2",-1.495423095,O=C1N(CC2CO2)C(=O)N(CC2CO2)C(=O)N1CC1CO1,0.011740548,G3,A,None,None,Uncharged
A-5196,"InChI=1S/C15H27N3O/c1-16(2)9-12-7-13(10-17(3)4)15(19)14(8-12)11-18(5)6/h7-8,19H,9-11H2,1-6H3",0.505516371,C[NH+](C)CC1=CC(C[NH+](C)C)=C([O-])C(C[NH+](C)C)=C1,0,G1,A,None,None,Zwitterion
A-5197,"InChI=1S/CH2O2.Cs/c2-1-3;/h1H,(H,2,3);/q;+1",0.674687201,[Cs+],0,G1,A,None,Cosolvent Buffer,Positive
A-5198,"InChI=1S/C6H10O6/c7-5(8)3-11-1-2-12-4-6(9)10/h1-4H2,(H,7,8)(H,9,10)",0.670925028,[O-]C(=O)COCCOCC([O-])=O,0,G1,A,None,None,Negative
A-5199,"InChI=1S/C6H11NO2/c1-5(2)6(8)7-4-9-3/h1,4H2,2-3H3,(H,7,8)",0.791965313,COCNC(=O)C(C)=C,0,G1,A,None,None,Uncharged
A-5201,"InChI=1S/C14H23N3O10.5Na/c18-10(19)5-15(1-3-16(6-11(20)21)7-12(22)23)2-4-17(8-13(24)25)9-14(26)27;;;;;/h1-9H2,(H,18,19)(H,20,21)(H,22,23)(H,24,25)(H,26,27);;;;;/q;5*+1/p-5",0.201298437,[O-]C(=O)CN(CC[NH+](CCN(CC([O-])=O)CC([O-])=O)CC([O-])=O)CC([O-])=O,0,G1,A,None,None,Zwitterion
A-5202,"InChI=1S/C13H28N2/c1-6-7-8-14-11-9-12(2,3)15-13(4,5)10-11/h11,14-15H,6-10H2,1-5H3",0.57461503,CCCC[NH2+]C1CC(C)(C)[NH2+]C(C)(C)C1,0,G1,A,None,None,Positive
A-5203,"InChI=1S/C4H12O4P.CH4N2O.H2O4S/c5-1-9(2-6,3-7)4-8;2-1(3)4;1-5(2,3)4/h5-8H,1-4H2;(H4,2,3,4);(H2,1,2,3,4)/q+1;;/p-1",0.403692118,NC(N)=O.[O-]S([O-])(=O)=O.OC[P+](CO)(CO)CO,0,G1,A,None,Cosolvent Buffer,Zwitterion
A-5204,"InChI=1S/C20H16ClN9O10S3.3Na/c21-17-26-18(22)28-20(27-17)24-9-1-2-12(13(5-9)25-19(23)31)29-30-14-7-11-8(4-16(14)43(38,39)40)3-10(41(32,33)34)6-15(11)42(35,36)37;;;/h1-7H,(H3,23,25,31)(H,32,33,34)(H,35,36,37)(H,38,39,40)(H3,22,24,26,27,28);;;/q;3*+1/p-3",-1.000000587,NC(=O)NC1=CC(NC2=NC(N)=NC(Cl)=N2)=CC=C1N=NC1=CC2=C(C=C(C=C2C=C1S([O-])(=O)=O)S([O-])(=O)=O)S([O-])(=O)=O,0,G1,A,None,None,Negative
A-5205,InChI=1S/2Na.O5Si2/c;;1-6(2)5-7(3)4/q2*+1;-2,0.584676017,[O-][Si](=O)O[Si]([O-])=O,0,G1,A,None,None,Negative
A-5206,"InChI=1S/C4H10O2/c1-4(2,3)6-5/h5H,1-3H3",0.884647226,CC(C)(C)OO,0,G1,A,None,None,Uncharged
A-5207,"InChI=1S/C16H12ClN5O7S.Na/c1-8-14(19-18-13-7-10(22(25)26)6-12(17)15(13)23)16(24)21(20-8)9-2-4-11(5-3-9)30(27,28)29;/h2-7,14,19H,1H3,(H,27,28,29);/q;+1/p-1/b18-13+;",-0.838577173,CC1=NN(C(=O)C1N=NC1=CC(=CC(Cl)=C1[O-])[N+]([O-])=O)C1=CC=C(C=C1)S([O-])(=O)=O,0,G1,A,None,None,Negative
A-5208,InChI=1S/Co.2NO3.6H2O/c;2*2-1(3)4;;;;;;/h;;;6*1H2/q+2;2*-1;;;;;;,0.361876193,[O-][N+]([O-])=O,0.156716886,G3,A,None,None,Negative
A-5209,"InChI=1S/C4H12O4P.CH4N2O.ClH/c5-1-9(2-6,3-7)4-8;2-1(3)4;/h5-8H,1-4H2;(H4,2,3,4);1H/q+1;;/p-1",0.425111841,[Cl-].NC(N)=O.OC[P+](CO)(CO)CO,0,G1,A,None,Cosolvent Buffer,Zwitterion
A-5210,"InChI=1S/C18H36N2O6/c1-13(21)9-19(10-14(2)22)17(25)7-5-6-8-18(26)20(11-15(3)23)12-16(4)24/h13-16,21-24H,5-12H2,1-4H3",0.210993363,CC(O)CN(CC(C)O)C(=O)CCCCC(=O)N(CC(C)O)CC(C)O,0,G1,A,None,None,Uncharged
A-5211,"InChI=1S/C3H6O2S/c4-3(5)1-2-6/h6H,1-2H2,(H,4,5)",0.754917543,[O-]C(=O)CCS,0,G1,A,None,None,Negative
A-5213,"InChI=1S/C4H9NO3.ClH/c1-8-4(7)3(5)2-6;/h3,6H,2,5H2,1H3;1H",0.577420768,COC(=O)C(N)CO,0,G1,A,None,None,Uncharged
A-5214,"InChI=1S/C6H10O3/c1-6(2)3-9-5(8)4(6)7/h4,7H,3H2,1-2H3",0.651530723,CC1(C)COC(=O)C1O,0.118986971,G5,A,None,None,Uncharged
A-5215,"InChI=1S/2C16H14ClN5O4S.Cr.Na/c2*1-9-15(16(24)22(21-9)10-5-3-2-4-6-10)20-19-12-7-11(17)14(8-13(12)23)27(18,25)26;;/h2*2-8,23-24H,1H3,(H2,18,25,26);;/q;;+3;+1/p-4",-2.692470897,CC1=C(N=NC2=CC(Cl)=C(C=C2[O-])S(N)(=O)=O)C(=O)N([N-]1)C1=CC=CC=C1,0,G1,A,None,None,Negative
A-5216,"InChI=1S/C9H22N2O2/c1-10(2)5-8-13-9-6-11(3)4-7-12/h12H,4-9H2,1-3H3",0.476465736,C[NH+](C)CCOCC[NH+](C)CCO,0,G1,A,None,None,Positive
A-5217,InChI=1S/CH2N2/c2-1-3/h2H2,1.124514989,NC#N,0.079556181,G5,A,None,None,Uncharged
A-5218,"InChI=1S/C5H11N3O/c6-1-3-8-4-2-7-5(8)9/h1-4,6H2,(H,7,9)",0.63354594,[NH3+]CCN1CCNC1=O,0,G1,A,None,None,Positive
A-5219,"InChI=1S/C26H25N5O19S6.4Na/c27-23-22-15(13-20(53(37,38)39)24(23)30-28-16-1-5-18(6-2-16)51(33,34)11-9-49-55(43,44)45)14-21(54(40,41)42)25(26(22)32)31-29-17-3-7-19(8-4-17)52(35,36)12-10-50-56(46,47)48;;;;/h1-8,13-14,29H,9-12,27H2,(H,37,38,39)(H,40,41,42)(H,43,44,45)(H,46,47,48);;;;/q;4*+1/p-4/b30-28?,31-25-;;;;",-0.255286517,NC1=C(N=NC2=CC=C(C=C2)S(=O)(=O)CCOS([O-])(=O)=O)C(=CC2=C1C(=O)C(=NNC1=CC=C(C=C1)S(=O)(=O)CCOS([O-])(=O)=O)C(=C2)S([O-])(=O)=O)S([O-])(=O)=O,0,G1,A,None,None,Negative
A-5225,"InChI=1S/C27H42NO2.ClH/c1-26(2,3)22-27(4,5)24-13-15-25(16-14-24)30-20-19-29-18-17-28(6,7)21-23-11-9-8-10-12-23;/h8-16H,17-22H2,1-7H3;1H/q+1;/p-1",0.072909649,CC(C)(C)CC(C)(C)C1=CC=C(OCCOCC[N+](C)(C)CC2=CC=CC=C2)C=C1,0.00526198,G3,A,None,None,Positive
A-5226,"InChI=1S/C9H19NO4/c1-9(2,6-12)7(13)8(14)10-4-3-5-11/h7,11-13H,3-6H2,1-2H3,(H,10,14)/t7-/m0/s1",0.394426153,CC(C)(CO)C(O)C(=O)NCCCO,0.146636924,G3,A,None,None,Uncharged
A-5227,"InChI=1S/C18H42N6/c1-19(2)10-7-13-22-16-23(14-8-11-20(3)4)18-24(17-22)15-9-12-21(5)6/h7-18H2,1-6H3",0.16421307,C[NH+](C)CCCN1CN(CCC[NH+](C)C)CN(CCC[NH+](C)C)C1,0,G1,A,None,None,Positive
A-5228,"InChI=1S/C2H4O2.Cr/c1-2(3)4;/h1H3,(H,3,4);/p-1",0.653490551,CC([O-])=O,0.388415676,G5,A,None,None,Negative
A-5229,"InChI=1S/C30H52O45S8.C12H18O13.C6H14O6/c1-6-11(31)16(66-29-24(74-82(53,54)55)18(68-76(35,36)37)13(33)8(3)62-29)22(72-80(47,48)49)28(61-6)65-15-10(5)63-30(25(75-83(56,57)58)20(15)70-78(41,42)43)67-17-12(32)7(2)60-27(23(17)73-81(50,51)52)64-14-9(4)59-26(34)21(71-79(44,45)46)19(14)69-77(38,39)40;13-1-2(14)7(9(18)19)25-12(5(1)17)24-6-3(15)4(16)11(22)23-8(6)10(20)21;7-1-3(9)5(11)6(12)4(10)2-8/h6-34H,1-5H3,(H,35,36,37)(H,38,39,40)(H,41,42,43)(H,44,45,46)(H,47,48,49)(H,50,51,52)(H,53,54,55)(H,56,57,58);1-8,11-17,22H,(H,18,19)(H,20,21);3-12H,1-2H2/t6-,7-,8-,9-,10-,11+,12+,13+,14+,15+,16+,17+,18+,19+,20+,21-,22-,23-,24-,25-,26+,27-,28-,29-,30-;1-,2-,3+,4-,5-,6-,7-,8-,11+,12+;3-,4-,5-,6-/m001/s1",-0.589205864,CC1OC(OC2C(C)OC(OC3C(O)C(C)OC(OC4C(C)OC(O)C(OS([O-])(=O)=O)C4OS([O-])(=O)=O)C3OS([O-])(=O)=O)C(OS([O-])(=O)=O)C2OS([O-])(=O)=O)C(OS([O-])(=O)=O)C(OC2OC(C)C(O)C(OS([O-])(=O)=O)C2OS([O-])(=O)=O)C1O,0,G1,A,None,Multi-constituent Substances,Negative
A-5230,"InChI=1S/C9H21NO3/c1-7(11)4-10(5-8(2)12)6-9(3)13/h7-9,11-13H,4-6H2,1-3H3",0.417320876,CC(O)C[NH+](CC(C)O)CC(C)O,0.110054044,G3,A,None,None,Positive
A-5231,"InChI=1S/C6H14N2O2.ClH/c7-4-2-1-3-5(8)6(9)10;/h5H,1-4,7-8H2,(H,9,10);1H/t5-;/m0./s1",0.43734795,[NH3+]CCCCC([NH3+])C([O-])=O,0,G1,A,None,None,Zwitterion
A-5232,"InChI=1S/C7H13NO4S.Na/c1-4-6(9)8-7(2,3)5-13(10,11)12;/h4H,1,5H2,2-3H3,(H,8,9)(H,10,11,12);/q;+1/p-1",0.338692866,CC(C)(CS([O-])(=O)=O)NC(=O)C=C,0,G1,A,None,None,Negative
A-5233,"InChI=1S/C5H10O4/c1-4(6)3-5(2,7)9-8-4/h6-7H,3H2,1-2H3",0.571440842,CC1(O)CC(C)(O)OO1,0,G1,A,None,Unstable,Uncharged
A-5234,"InChI=1S/C10H28N6/c11-1-3-13-5-7-15-9-10-16-8-6-14-4-2-12/h13-16H,1-12H2",0.332778733,[NH3+]CCNCCNCC[NH2+]CCNCC[NH3+],0,G1,A,None,None,Positive
A-5235,"InChI=1S/C14H31N3/c1-13(2)10-12(11-14(3,4)16-13)15-8-7-9-17(5)6/h12,15-16H,7-11H2,1-6H3",0.316191362,C[NH+](C)CCC[NH2+]C1CC(C)(C)[NH2+]C(C)(C)C1,0,G1,A,None,None,Positive
A-5236,"InChI=1S/Ni.2H3O4P/c;2*1-5(2,3)4/h;2*(H3,1,2,3,4)/q+2;;/p-2",0.296424918,OP([O-])([O-])=O,0,G1,A,None,None,Negative
A-5237,"InChI=1S/C12H22O7S.Na/c1-8(2)6-18-11(13)5-10(20(15,16)17)12(14)19-7-9(3)4;/h8-10H,5-7H2,1-4H3,(H,15,16,17);/q;+1/p-1",0.177374321,CC(C)COC(=O)CC(C(=O)OCC(C)C)S([O-])(=O)=O,0,G1,A,None,None,Negative
A-5238,"InChI=1S/C16H30O7S.Na/c1-10(2)7-12(5)22-15(17)9-14(24(19,20)21)16(18)23-13(6)8-11(3)4;/h10-14H,7-9H2,1-6H3,(H,19,20,21);/q;+1/p-1",0.109625935,CC(C)CC(C)OC(=O)CC(C(=O)OC(C)CC(C)C)S([O-])(=O)=O,0,G1,A,None,None,Negative
A-5239,"InChI=1S/C8H18O4S.Na/c1-3-5-6-8(4-2)7-12-13(9,10)11;/h8H,3-7H2,1-2H3,(H,9,10,11);/q;+1/p-1",0.332963796,CCCCC(CC)COS([O-])(=O)=O,0,G1,A,None,None,Negative
A-5240,"InChI=1S/C3H6O2.Na/c1-2-3(4)5;/h2H2,1H3,(H,4,5);/q;+1/p-1",0.716422901,CCC([O-])=O,0,G1,A,None,None,Negative
A-5241,"InChI=1S/C40H28N10O15S3.3Na/c51-35-21-36(52)34(20-33(35)47-44-25-10-6-23(7-11-25)42-31-15-13-27(50(55)56)19-39(31)68(63,64)65)48-45-29-16-17-32(40-28(29)2-1-3-37(40)66(57,58)59)46-43-24-8-4-22(5-9-24)41-30-14-12-26(49(53)54)18-38(30)67(60,61)62;;;/h1-21,41-42,44,52H,(H,57,58,59)(H,60,61,62)(H,63,64,65);;;/q;3*+1/p-3/b46-43?,47-33-,48-45?;;;",-0.322577337,[O-]C1=CC(=O)C(C=C1N=NC1=CC=C(N=NC2=CC=C(NC3=CC=C(C=C3S([O-])(=O)=O)[N+]([O-])=O)C=C2)C2=C(C=CC=C12)S([O-])(=O)=O)=NNC1=CC=C(NC2=CC=C(C=C2S([O-])(=O)=O)[N+]([O-])=O)C=C1,0,G1,A,None,None,Negative
A-5242,"InChI=1S/C10H22N2.C7H8O3S/c1-9(2)4-8(12)5-10(3,6-9)7-11;1-6-2-4-7(5-3-6)11(8,9)10/h8H,4-7,11-12H2,1-3H3;2-5H,1H3,(H,8,9,10)",0.157298187,CC1(C)CC([NH3+])CC(C)(C[NH3+])C1,0,G1,A,None,Cosolvent Buffer,Positive