ID,InChI,Solubility,SMILEScurated,SD,Group,Dataset,Composition,Error,Charge
A-5923,"InChI=1S/C23H28O4/c1-2-3-4-5-6-12-17-26-22(24)20-15-10-11-16-21(20)23(25)27-18-19-13-8-7-9-14-19/h7-11,13-16H,2-6,12,17-18H2,1H3",-8.287652069,CCCCCCCCOC(=O)C1=CC=CC=C1C(=O)OCC1=CC=CC=C1,0.488861803,G3,A,None,None,Uncharged
A-5924,"InChI=1S/C18H18N4O6/c1-11(23)17(18(24)19-14-6-4-5-7-16(14)28-3)21-20-13-9-8-12(27-2)10-15(13)22(25)26/h4-10,17H,1-3H3,(H,19,24)",-8.308243053,COC1=CC=C([N-]N=C(C(C)=O)C(=O)NC2=CC=CC=C2OC)C(=C1)[N+]([O-])=O,0,G1,A,None,None,Negative
A-5925,"InChI=1S/C32H24N6O5/c1-43-27-14-11-19(30(40)33-20-8-3-2-4-9-20)16-26(27)37-38-28-22-10-6-5-7-18(22)15-23(29(28)39)31(41)34-21-12-13-24-25(17-21)36-32(42)35-24/h2-17,37H,1H3,(H,33,40)(H,34,41)(H2,35,36,42)/b38-28-",-8.479083332,,0,G1,A,None,None,Uncharged
A-5928,"InChI=1S/C24H29N/c1-23(2,3)18-24(4,5)25(20-14-7-6-8-15-20)22-17-11-13-19-12-9-10-16-21(19)22/h6-17H,18H2,1-5H3",-8.290038542,CC(C)(C)CC(C)(C)N(C1=CC=CC=C1)C1=CC=CC2=CC=CC=C12,0,G1,A,None,None,Uncharged
A-5929,"InChI=1S/C24H17Cl2N3O3/c1-32-21-9-5-4-8-19(21)27-24(31)17-12-14-6-2-3-7-16(14)22(23(17)30)29-28-20-13-15(25)10-11-18(20)26/h2-13,28H,1H3,(H,27,31)/b29-22+",-8.464567785,COC1=CC=CC=C1NC(=O)C1=CC2=CC=CC=C2C(N=NC2=CC(Cl)=CC=C2Cl)=C1O,0,G1,A,None,None,Uncharged
A-5930,"InChI=1S/C40H60N2O8/c1-37(2,3)27-21-25(22-28(33(27)45)38(4,5)6)13-15-31(43)49-19-17-41-35(47)36(48)42-18-20-50-32(44)16-14-26-23-29(39(7,8)9)34(46)30(24-26)40(10,11)12/h21-24,45-46H,13-20H2,1-12H3,(H,41,47)(H,42,48)",-8.667095408,CC(C)(C)C1=CC(CCC(=O)OCCNC(=O)C(=O)NCCOC(=O)CCC2=CC(=C(O)C(=C2)C(C)(C)C)C(C)(C)C)=CC(=C1O)C(C)(C)C,0,G1,A,None,None,Uncharged
A-5932,"InChI=1S/C52H102O4/c1-5-7-9-11-12-13-14-15-16-17-20-23-30-35-41-47-52(54)56-50(44-38-10-8-6-2)45-39-33-28-24-25-29-34-40-46-51(53)55-48-42-36-31-26-21-18-19-22-27-32-37-43-49(3)4/h49-50H,5-48H2,1-4H3",-8.755372465,CCCCCCCCCCCCCCCCCC(=O)OC(CCCCCC)CCCCCCCCCCC(=O)OCCCCCCCCCCCCCC(C)C,0,G1,A,None,None,Uncharged
A-5933,"InChI=1S/C29H50O2/c1-20(2)12-9-13-21(3)14-10-15-22(4)16-11-18-29(8)19-17-26-25(7)27(30)23(5)24(6)28(26)31-29/h20-22,30H,9-19H2,1-8H3/t21-,22-,29-/m1/s1",-8.520248661,CC(C)CCCC(C)CCCC(C)CCCC1(C)CCC2=C(C)C(O)=C(C)C(C)=C2O1,0,G1,A,None,None,Uncharged
A-5934,"InChI=1S/C28H48O2/c1-20(2)11-8-12-21(3)13-9-14-22(4)15-10-17-28(7)18-16-25-19-26(29)23(5)24(6)27(25)30-28/h19-22,29H,8-18H2,1-7H3",-8.505869726,CC(C)CCCC(C)CCCC(C)CCCC1(C)CCC2=CC(O)=C(C)C(C)=C2O1,0,G1,A,None,None,Uncharged
A-5937,"InChI=1S/C42H78O5/c1-4-7-9-11-13-15-17-19-21-23-25-27-29-31-33-35-40(44)46-38-42(6-3,37-43)39-47-41(45)36-34-32-30-28-26-24-22-20-18-16-14-12-10-8-5-2/h19-22,43H,4-18,23-39H2,1-3H3/b21-19-,22-20-",-8.721196039,CCCCCCCCC=CCCCCCCCC(=O)OCC(CC)(CO)COC(=O)CCCCCCCC=CCCCCCCCC,0,G1,A,None,None,Uncharged
A-5939,InChI=1S/O.Pd/q-2;+2,-8.062542962,[Pd++],0,G1,A,None,None,Uncharged
A-5940,"InChI=1S/C34H30Cl2N6O4/c1-19-9-5-7-11-27(19)37-33(45)31(21(3)43)41-39-29-15-13-23(17-25(29)35)24-14-16-30(26(36)18-24)40-42-32(22(4)44)34(46)38-28-12-8-6-10-20(28)2/h5-18,31-32H,1-4H3,(H,37,45)(H,38,46)",-8.914844079,CC(=O)C(=N[N-]C1=CC=C(C=C1Cl)C1=CC=C([N-]N=C(C(C)=O)C(=O)NC2=CC=CC=C2C)C(Cl)=C1)C(=O)NC1=CC=CC=C1C,0,G1,A,None,None,Negative
A-5941,"InChI=1S/C25H35N5O4S/c1-5-8-10-19(7-3)17-27-35(33,34)21-13-11-20(12-14-21)28-29-23-18(4)22(16-26)24(31)30(25(23)32)15-9-6-2/h11-14,19,27,32H,5-10,15,17H2,1-4H3",-8.797313427,CCCCC(CC)CNS(=O)(=O)C1=CC=C(NN=C2C(C)=C(C#N)C(=O)N(CCCC)C2=O)C=C1,0,G1,A,None,None,Uncharged
A-5950,InChI=1S/S.Sn,-8.40595505,S=[SnH2],0,G1,A,None,None,Uncharged
A-5951,"InChI=1S/C44H26Cl4N6O4/c45-31-15-7-19-35(37(31)47)51-53-39-25-11-3-1-9-23(25)21-29(41(39)55)43(57)49-33-17-5-14-28-27(33)13-6-18-34(28)50-44(58)30-22-24-10-2-4-12-26(24)40(42(30)56)54-52-36-20-8-16-32(46)38(36)48/h1-22,51-52H,(H,49,57)(H,50,58)/b53-39-,54-40+",-9.227651248,OC1=C(N=NC2=C(Cl)C(Cl)=CC=C2)C2=CC=CC=C2C=C1C(=O)NC1=CC=CC2=C(NC(=O)C3=CC4=CC=CC=C4C(N=NC4=CC=CC(Cl)=C4Cl)=C3O)C=CC=C12,0,G1,A,None,None,Uncharged
A-5953,InChI=1S/2Bi.3S/q2*+3;3*-2,-9.098315275,[SH-].[SH-].[SH-].[Bi+3].[Bi+3],0,G1,A,None,None,Negative
A-5954,"InChI=1S/C32H26Cl2N6O4/c1-19(41)29(31(43)35-23-9-5-3-6-10-23)39-37-27-15-13-21(17-25(27)33)22-14-16-28(26(34)18-22)38-40-30(20(2)42)32(44)36-24-11-7-4-8-12-24/h3-18,29-30H,1-2H3,(H,35,43)(H,36,44)",-9.196938503,CC(=O)C(=N[N-]C1=CC=C(C=C1Cl)C1=CC=C([N-]N=C(C(C)=O)C(=O)NC2=CC=CC=C2)C(Cl)=C1)C(=O)NC1=CC=CC=C1,0,G1,A,None,None,Negative
A-5958,"InChI=1S/C9F21N/c10-1(11,4(16,17)18)7(25,26)31(8(27,28)2(12,13)5(19,20)21)9(29,30)3(14,15)6(22,23)24",-9.135966093,FC(F)(F)C(F)(F)C(F)(F)N(C(F)(F)C(F)(F)C(F)(F)F)C(F)(F)C(F)(F)C(F)(F)F,0,G1,A,None,None,Uncharged
A-5959,"InChI=1S/C36H34Cl2N6O4/c1-19-7-11-29(21(3)15-19)39-35(47)33(23(5)45)43-41-31-13-9-25(17-27(31)37)26-10-14-32(28(38)18-26)42-44-34(24(6)46)36(48)40-30-12-8-20(2)16-22(30)4/h7-18,33-34H,1-6H3,(H,39,47)(H,40,48)",-9.292010366,CC(=O)C(=N[N-]C1=CC=C(C=C1Cl)C1=CC=C([N-]N=C(C(C)=O)C(=O)NC2=CC=C(C)C=C2C)C(Cl)=C1)C(=O)NC1=CC=C(C)C=C1C,0,G1,A,None,None,Negative
A-5961,"InChI=1S/C19H17NO7/c1-2-25-19(24)27-8-7-26-13-9-12(21)14-15(16(13)20)18(23)11-6-4-3-5-10(11)17(14)22/h3-6,9,21H,2,7-8,20H2,1H3",-9.219529562,CCOC(=O)OCCOC1=CC(O)=C2C(=O)C3=CC=CC=C3C(=O)C2=C1N,0,G1,A,None,None,Uncharged
A-5964,"InChI=1S/C12H36O4Si5/c1-17(2,3)13-21(14-18(4,5)6,15-19(7,8)9)16-20(10,11)12/h1-12H3",-9.407173725,C[Si](C)(C)O[Si](O[Si](C)(C)C)(O[Si](C)(C)C)O[Si](C)(C)C,0,G1,A,None,None,Uncharged
A-5965,"InChI=1S/C21H20Br8O2/c1-21(2,11-3-15(26)19(16(27)4-11)30-9-13(24)7-22)12-5-17(28)20(18(29)6-12)31-10-14(25)8-23/h3-6,13-14H,7-10H2,1-2H3",-9.816435105,CC(C)(C1=CC(Br)=C(OCC(Br)CBr)C(Br)=C1)C1=CC(Br)=C(OCC(Br)CBr)C(Br)=C1,0,G1,A,None,None,Uncharged
A-5970,InChI=1S/Ir,-9.982761799,[Ir],0,G1,A,None,None,Uncharged
A-5972,"InChI=1S/C40H78O5/c1-36(2)31-27-23-19-15-11-7-5-9-13-17-21-25-29-33-44-39(42)35-38(41)40(43)45-34-30-26-22-18-14-10-6-8-12-16-20-24-28-32-37(3)4/h36-38,41H,5-35H2,1-4H3",-7.992627599,CC(C)CCCCCCCCCCCCCCCOC(=O)CC(O)C(=O)OCCCCCCCCCCCCCCCC(C)C,0,G1,A,None,None,Uncharged
A-5974,"InChI=1S/2C18H36O2.Co/c2*1-2-3-4-5-6-7-8-9-10-11-12-13-14-15-16-17-18(19)20;/h2*2-17H2,1H3,(H,19,20);/q;;+2/p-2",-5.273398705,CCCCCCCCCCCCCCCCCC([O-])=O,1.012832011,G4,A,None,None,Negative
A-5977,"InChI=1S/C18H36O2/c1-4-7-9-10-11-12-13-14-16-20-18(19)17(6-3)15-8-5-2/h17H,4-16H2,1-3H3",-8.193986458,CCCCCCCCCCOC(=O)C(CC)CCCC,0,G1,A,None,None,Uncharged
A-5978,"InChI=1S/C18H36O2/c1-14(12-17(3,4)5)9-10-20-16(19)11-15(2)13-18(6,7)8/h14-15H,9-13H2,1-8H3",-8.277966587,CC(CCOC(=O)CC(C)CC(C)(C)C)CC(C)(C)C,0,G1,A,None,None,Uncharged
A-5979,"InChI=1S/C32H64O2/c1-3-5-7-9-11-13-15-17-18-19-20-22-24-26-28-30-32(33)34-31-29-27-25-23-21-16-14-12-10-8-6-4-2/h3-31H2,1-2H3",-8.983050454,CCCCCCCCCCCCCCCCCC(=O)OCCCCCCCCCCCCCC,0,G1,A,None,None,Uncharged
A-5980,InChI=1S/3C2H4O2.2Sb/c3*3-1-2-4;;/h3*1-2H2;;/q3*-2;2*+3,-9.024973872,C1CO[Sb]2OCCO[Sb](O1)OCCO2,0,G1,A,None,None,Uncharged
A-5982,"InChI=1S/C16H22O2/c1-2-3-4-5-9-12-15(17)13-16(18)14-10-7-6-8-11-14/h6-8,10-11H,2-5,9,12-13H2,1H3",-5.883696695,CCCCCCCC(O)=CC(=O)C1=CC=CC=C1,0.045175528,G5,A,None,None,Uncharged
A-5987,InChI=1S/2Cr.2Fe.2Mn.9O,-8.972710916,O=[Cr]O[Cr]=O,0,G1,A,None,Multi-constituent Substances,Uncharged
A-5988,InChI=1S/H2Si/h1H2,-5.663160057,[Si],1.473177124,G4,A,None,None,Uncharged
A-5991,"InChI=1S/C18H10Cl2O2S2/c1-7-3-9(19)5-11-13(7)15(21)17(23-11)18-16(22)14-8(2)4-10(20)6-12(14)24-18/h3-6H,1-2H3/b18-17-",-7.931983782,CC1=CC(Cl)=CC2=C1C(=O)C(S2)=C1SC2=CC(Cl)=CC(C)=C2C1=O,0,G1,A,None,None,Uncharged
A-5992,"InChI=1S/C17H13N3O4/c1-24-12-7-8-14(15(10-12)20(22)23)18-19-17-13-5-3-2-4-11(13)6-9-16(17)21/h2-10,18H,1H3/b19-17-",-7.991102511,COC1=CC=C(NN=C2C(=O)C=CC3=CC=CC=C23)C(=C1)[N+]([O-])=O,0,G1,A,None,None,PureChargeSeparation
A-5993,"InChI=1S/C29H40O2/c1-20-15-22(26(30)24(17-20)28(3)11-7-5-8-12-28)19-23-16-21(2)18-25(27(23)31)29(4)13-9-6-10-14-29/h15-18,30-31H,5-14,19H2,1-4H3",-8.146786217,CC1=CC(=C(O)C(CC2=C(O)C(=CC(C)=C2)C2(C)CCCCC2)=C1)C1(C)CCCCC1,0,G1,A,None,None,Uncharged
A-5994,InChI=1S/Mo.H2S/h;1H2,-5.812990187,[Mo],0,G1,A,None,None,Uncharged
A-5995,InChI=1S/C22H8Br2O2/c23-15-7-14-19-17-9(15)3-1-5-11(17)21(25)13-8-16(24)10-4-2-6-12(22(14)26)18(10)20(13)19/h1-8H,-7.633199042,BrC1=CC2=C3C4=C(C=CC=C14)C(=O)C1=CC(Br)=C4C=CC=C(C2=O)C4=C31,0,G1,A,None,None,Uncharged
A-5996,"InChI=1S/C12H10N6O4/c1-4-2-6-7(14-11(21)13-6)3-5(4)17-18-8-9(19)15-12(22)16-10(8)20/h2-3,8,17-18H,1H3,(H2,15,16,19,20,22)",-6.489140234,CC1=CC2=NC(=O)N=C2C=C1NNC1=C(O)NC(=O)NC1=O,0,G1,A,None,None,Uncharged
A-5997,"InChI=1S/C28H23F3N6/c1-17-8-12-20(13-9-17)33-26-22(16-32)19(3)25(27(35-26)34-21-14-10-18(2)11-15-21)37-36-24-7-5-4-6-23(24)28(29,30)31/h4-15H,1-3H3,(H2,33,34,35)",-7.717157144,CC1=CC=C(NC2=NC(NC3=CC=C(C)C=C3)=C(C#N)C(C)=C2N=NC2=CC=CC=C2C(F)(F)F)C=C1,0,G1,A,None,None,Uncharged
A-5998,"InChI=1S/C26H14N2O4/c1-27-23(29)15-7-3-11-13-5-9-17-22-18(26(32)28(2)25(17)31)10-6-14(20(13)22)12-4-8-16(24(27)30)21(15)19(11)12/h3-10H,1-2H3",-7.718509993,CN1C(=O)C2=CC=C3C4=C5C(=CC=C6C(=O)N(C)C(=O)C(C=C4)=C56)C4=C3C2=C(C=C4)C1=O,0.235509908,G5,A,None,None,Uncharged
A-5999,"InChI=1S/C25H19N3O4/c1-13-4-9-19-18(12-13)26-22-14-5-6-15-21-16(7-8-17(20(14)21)25(31)28(19)22)24(30)27(23(15)29)10-3-11-32-2/h4-9,12H,3,10-11H2,1-2H3",-6.771509907,COCCCN1C(=O)C2=CC=C3C4=NC5=CC(C)=CC=C5N4C(=O)C4=C3C2=C(C=C4)C1=O,0,G1,A,None,None,Uncharged
A-6001,"InChI=1S/C40H24Cl4N6O4/c41-31-19-35(45-49-47-39(53)29-13-23-5-1-3-7-25(23)15-37(29)51)33(43)17-27(31)21-9-11-22(12-10-21)28-18-34(44)36(20-32(28)42)46-50-48-40(54)30-14-24-6-2-4-8-26(24)16-38(30)52/h1-20,51-52H,(H,45,47,53)(H,46,48,54)",-8.087170706,[O-]C1=CC2=CC=CC=C2C=C1C(=O)N=NNC1=CC(Cl)=C(C=C1Cl)C1=CC=C(C=C1)C1=CC(Cl)=C(NN=NC(=O)C2=CC3=CC=CC=C3C=C2[O-])C=C1Cl,0,G1,A,None,None,Negative
A-6002,"InChI=1S/C33H68O4/c1-5-9-13-17-21-25-34-29-33(30-35-26-22-18-14-10-6-2,31-36-27-23-19-15-11-7-3)32-37-28-24-20-16-12-8-4/h5-32H2,1-4H3",-7.94522478,CCCCCCCOCC(COCCCCCCC)(COCCCCCCC)COCCCCCCC,0,G1,A,None,None,Uncharged
A-6003,InChI=1S/2O.Zr,-6.350325564,O=[Zr]=O,0,G1,A,None,None,Uncharged
A-6004,"InChI=1S/C21H21BrN6O6/c1-5-7-26(8-6-2)18-11-16(23-13(3)29)17(12-20(18)34-4)24-25-21-15(22)9-14(27(30)31)10-19(21)28(32)33/h5-6,9-12H,1-2,7-8H2,3-4H3,(H,23,29)",-7.009332839,COC1=CC(N=NC2=C(Br)C=C(C=C2[N+]([O-])=O)[N+]([O-])=O)=C(NC(C)=O)C=C1N(CC=C)CC=C,0,G1,A,None,None,PureChargeSeparation
A-6005,"InChI=1S/C16H10N2O2/c19-15-9-5-1-3-7-11(9)17-13(15)14-16(20)10-6-2-4-8-12(10)18-14/h1-8,17-18H/b14-13-",-6.7197753,O=C1C(NC2=CC=CC=C12)=C1NC2=CC=CC=C2C1=O,0,G1,A,None,Below LoD Below LoQ,Uncharged
A-6006,"InChI=1S/C17H34O2/c1-4-5-6-7-8-9-10-11-12-13-14-15-17(18)19-16(2)3/h16H,4-15H2,1-3H3",-6.733128222,CCCCCCCCCCCCCC(=O)OC(C)C,0,G1,A,None,None,Uncharged
A-6008,"InChI=1S/C30H47N/c1-3-5-7-9-11-13-15-19-27-21-17-23-29(25-27)31-30-24-18-22-28(26-30)20-16-14-12-10-8-6-4-2/h17-18,21-26,31H,3-16,19-20H2,1-2H3",-7.926046985,CCCCCCCCCC1=CC(NC2=CC(CCCCCCCCC)=CC=C2)=CC=C1,0,G1,A,None,None,Uncharged
A-6010,"InChI=1S/C18H15NO2/c1-2-21-18(20)16(13-19)17(14-9-5-3-6-10-14)15-11-7-4-8-12-15/h3-12H,2H2,1H3",-7.744015885,CCOC(=O)C(C#N)=C(C1=CC=CC=C1)C1=CC=CC=C1,0,G1,A,None,Below LoD Below LoQ,Uncharged
A-6011,"InChI=1S/C40H62O6/c1-37(2,3)29-23-27(24-30(35(29)43)38(4,5)6)17-19-33(41)45-21-15-13-14-16-22-46-34(42)20-18-28-25-31(39(7,8)9)36(44)32(26-28)40(10,11)12/h23-26,43-44H,13-22H2,1-12H3",-8.106483276,CC(C)(C)C1=CC(CCC(=O)OCCCCCCOC(=O)CCC2=CC(=C(O)C(=C2)C(C)(C)C)C(C)(C)C)=CC(=C1O)C(C)(C)C,0,G1,A,None,None,Uncharged
A-6012,"InChI=1S/C42H63O3P/c1-37(2,3)28-19-22-34(31(25-28)40(10,11)12)43-46(44-35-23-20-29(38(4,5)6)26-32(35)41(13,14)15)45-36-24-21-30(39(7,8)9)27-33(36)42(16,17)18/h19-27H,1-18H3",-8.111891986,CC(C)(C)C1=CC=C(OP(OC2=CC=C(C=C2C(C)(C)C)C(C)(C)C)OC2=CC=C(C=C2C(C)(C)C)C(C)(C)C)C(=C1)C(C)(C)C,0.627636253,G2,A,None,Below LoD Below LoQ,Uncharged
A-6013,"InChI=1S/C20H20BrClN4O6/c1-31-18(27)7-9-25(10-8-19(28)32-2)14-5-3-13(4-6-14)23-24-20-16(21)11-15(26(29)30)12-17(20)22/h3-6,11-12H,7-10H2,1-2H3",-7.100221625,COC(=O)CCN(CCC(=O)OC)C1=CC=C(C=C1)N=NC1=C(Cl)C=C(C=C1Br)[N+]([O-])=O,0,G1,A,None,None,PureChargeSeparation
A-6014,"InChI=1S/C19H15N5O4/c1-28-19-12-15(22-20-13-2-7-16(8-3-13)24(26)27)6-11-18(19)23-21-14-4-9-17(25)10-5-14/h2-12,23H,1H3",-6.963972007,COC1=CC(=CC=C1N=NC1=CC=C(O)C=C1)N=NC1=CC=C(C=C1)[N+]([O-])=O,0,G1,A,None,None,PureChargeSeparation
A-6015,"InChI=1S/C19H17Cl2N5O4/c1-13(27)30-10-9-25(8-2-7-22)15-5-3-14(4-6-15)23-24-19-17(20)11-16(26(28)29)12-18(19)21/h3-6,11-12H,2,8-10H2,1H3",-7.051424595,CC(=O)OCCN(CCC#N)C1=CC=C(C=C1)N=NC1=C(Cl)C=C(C=C1Cl)[N+]([O-])=O,0,G1,A,None,None,PureChargeSeparation
A-6017,"InChI=1S/C26H38O2/c1-10-11-18(19-14-21(25(4,5)6)23(27)12-16(19)2)20-15-22(26(7,8)9)24(28)13-17(20)3/h12-15,18,27-28H,10-11H2,1-9H3",-7.980671353,CCCC(C1=CC(=C(O)C=C1C)C(C)(C)C)C1=CC(=C(O)C=C1C)C(C)(C)C,0,G1,A,None,None,Uncharged
A-6018,"InChI=1S/C42H82O4S/c1-3-5-7-9-11-13-15-17-19-21-23-25-27-29-31-33-37-45-41(43)35-39-47-40-36-42(44)46-38-34-32-30-28-26-24-22-20-18-16-14-12-10-8-6-4-2/h3-40H2,1-2H3",-8.232475788,CCCCCCCCCCCCCCCCCCOC(=O)CCSCCC(=O)OCCCCCCCCCCCCCCCCCC,1.198970004,G2,A,None,Below LoD Below LoQ,Uncharged
A-6019,InChI=1S/Sn,-7.472430972,[Sn],0,G1,A,None,None,Uncharged
A-6020,"InChI=1S/C20H36O4/c1-5-9-11-17(7-3)15-23-19(21)13-14-20(22)24-16-18(8-4)12-10-6-2/h13-14,17-18H,5-12,15-16H2,1-4H3/b14-13-",-6.975819717,CCCCC(CC)COC(=O)C=CC(=O)OCC(CC)CCCC,0,G1,A,None,None,Uncharged
A-6021,"InChI=1S/C18H19ClN6O5/c1-4-23(5-2)12-6-7-15(16(9-12)20-11(3)26)21-22-18-14(19)8-13(24(27)28)10-17(18)25(29)30/h6-10H,4-5H2,1-3H3,(H,20,26)",-7.115885254,CCN(CC)C1=CC=C(N=NC2=C(Cl)C=C(C=C2[N+]([O-])=O)[N+]([O-])=O)C(NC(C)=O)=C1,0,G1,A,None,None,PureChargeSeparation
A-6022,"InChI=1S/C9H3Cl4NO2.C7H10N2.CH3O.Na/c1-16-9(15)4-3(2-14)5(10)7(12)8(13)6(4)11;1-5-6(8)3-2-4-7(5)9;1-2;/h1H3;2-4H,8-9H2,1H3;1H3;/q;;-1;+1",-7.171667045,[Na+].CO.CC1=C(N)C=CC=C1N.COC(=O)C1=C(Cl)C(Cl)=C(Cl)C(Cl)=C1C#N,0,G1,A,None,Cosolvent Buffer,Positive
A-6023,"InChI=1S/C24H21N5O4/c25-15-4-16-28(17-18-33-24(30)19-5-2-1-3-6-19)22-11-7-20(8-12-22)26-27-21-9-13-23(14-10-21)29(31)32/h1-3,5-14H,4,16-18H2",-7.169736136,[O-][N+](=O)C1=CC=C(C=C1)N=NC1=CC=C(C=C1)N(CCOC(=O)C1=CC=CC=C1)CCC#N,0,G1,A,None,None,PureChargeSeparation
A-6025,"InChI=1S/C20H19N7O3/c1-4-26(5-2)16-6-7-18(19(10-16)23-13(3)28)24-25-20-14(11-21)8-17(27(29)30)9-15(20)12-22/h6-10H,4-5H2,1-3H3,(H,23,28)",-8.102753049,CCN(CC)C1=CC=C(N=NC2=C(C=C(C=C2C#N)[N+]([O-])=O)C#N)C(NC(C)=O)=C1,0,G1,A,None,None,PureChargeSeparation
A-6026,"InChI=1S/C16H32O2/c1-4-5-6-7-8-9-10-11-12-13-16(17)18-14-15(2)3/h15H,4-14H2,1-3H3",-7.931847578,CCCCCCCCCCCC(=O)OCC(C)C,0,G1,A,None,None,Uncharged
A-6027,"InChI=1S/C23H44O2/c1-4-5-6-7-8-9-10-11-12-13-14-15-16-17-18-19-23(24)25-21-20-22(2)3/h11-12,22H,4-10,13-21H2,1-3H3/b12-11+",-8.070164748,CCCCCCCCC=CCCCCCCCC(=O)OCCC(C)C,0,G1,A,None,None,Uncharged
A-6029,"InChI=1S/C4F10O2S/c5-1(6,3(9,10)11)2(7,8)4(12,13)17(14,15)16",-6.042384349,FC(F)(F)C(F)(F)C(F)(F)C(F)(F)S(F)(=O)=O,0,G1,A,None,None,Uncharged
A-6030,"InChI=1S/C13H10F2/c14-12-5-1-10(2-6-12)9-11-3-7-13(15)8-4-11/h1-8H,9H2",-6.912156137,FC1=CC=C(CC2=CC=C(F)C=C2)C=C1,0,G1,A,None,None,Uncharged
A-6031,"InChI=1S/C55H37Cl5F6N8O8/c1-26-20-41(68-53(80)49(28(3)76)74-72-43-22-30(5-17-38(43)59)51(78)70-45-24-32(55(64,65)66)7-19-47(45)82-36-14-10-34(57)11-15-36)39(60)25-40(26)67-52(79)48(27(2)75)73-71-42-21-29(4-16-37(42)58)50(77)69-44-23-31(54(61,62)63)6-18-46(44)81-35-12-8-33(56)9-13-35/h4-25,48-49H,1-3H3,(H,67,79)(H,68,80)(H,69,77)(H,70,78)",-7.69168325,CC(=O)C(=N[N-]C1=CC(=CC=C1Cl)C(=O)NC1=CC(=CC=C1OC1=CC=C(Cl)C=C1)C(F)(F)F)C(=O)NC1=CC(Cl)=C(NC(=O)C(=N[N-]C2=CC(=CC=C2Cl)C(=O)NC2=CC(=CC=C2OC2=CC=C(Cl)C=C2)C(F)(F)F)C(C)=O)C=C1C,0,G1,A,None,Below LoD Below LoQ,Negative
A-6033,"InChI=1S/C22H24N6O9/c1-14(29)23-19-12-15(26(10-8-21(30)36-2)11-9-22(31)37-3)4-6-17(19)24-25-18-7-5-16(27(32)33)13-20(18)28(34)35/h4-7,12-13H,8-11H2,1-3H3,(H,23,29)",-7.332831336,COC(=O)CCN(CCC(=O)OC)C1=CC=C(N=NC2=CC=C(C=C2[N+]([O-])=O)[N+]([O-])=O)C(NC(C)=O)=C1,0,G1,A,None,None,PureChargeSeparation
A-6035,"InChI=1S/C23H24Br8O2/c1-21(2,13-5-15(26)19(16(27)6-13)32-11-22(3,30)9-24)14-7-17(28)20(18(29)8-14)33-12-23(4,31)10-25/h5-8H,9-12H2,1-4H3",-7.686491033,CC(Br)(CBr)COC1=C(Br)C=C(C=C1Br)C(C)(C)C1=CC(Br)=C(OCC(C)(Br)CBr)C(Br)=C1,0,G1,A,None,None,Uncharged
A-6036,"InChI=1S/C29H42O3/c1-26(2,3)19-13-14-23(20(17-19)27(4,5)6)32-25(31)18-15-21(28(7,8)9)24(30)22(16-18)29(10,11)12/h13-17,30H,1-12H3",-7.341090118,CC(C)(C)C1=CC=C(OC(=O)C2=CC(=C(O)C(=C2)C(C)(C)C)C(C)(C)C)C(=C1)C(C)(C)C,0,G1,A,None,None,Uncharged
A-6037,"InChI=1S/C18H19BrN6O5/c1-4-23(5-2)12-6-7-15(16(9-12)20-11(3)26)21-22-18-14(19)8-13(24(27)28)10-17(18)25(29)30/h6-10H,4-5H2,1-3H3,(H,20,26)",-7.379569278,CCN(CC)C1=CC=C(N=NC2=C(Br)C=C(C=C2[N+]([O-])=O)[N+]([O-])=O)C(NC(C)=O)=C1,0,G1,A,None,None,PureChargeSeparation
A-6038,InChI=1S/C14H6Cl4O4/c15-7-1-3-9(11(17)5-7)13(19)21-22-14(20)10-4-2-8(16)6-12(10)18/h1-6H,-8.27876503,ClC1=CC=C(C(=O)OOC(=O)C2=CC=C(Cl)C=C2Cl)C(Cl)=C1,0,G1,A,None,Unstable,Uncharged
A-6039,"InChI=1S/C24H51N/c1-7-13-16-22(10-4)19-25(20-23(11-5)17-14-8-2)21-24(12-6)18-15-9-3/h22-24H,7-21H2,1-6H3",-8.247579278,CCCCC(CC)C[NH+](CC(CC)CCCC)CC(CC)CCCC,0,G1,A,None,None,Positive
A-6040,"InChI=1S/C40H26N2O4/c43-37-29-15-11-25-27-13-17-31-36-32(40(46)42(39(31)45)22-20-24-9-5-2-6-10-24)18-14-28(34(27)36)26-12-16-30(35(29)33(25)26)38(44)41(37)21-19-23-7-3-1-4-8-23/h1-18H,19-22H2",-8.476148795,O=C1N(CCC2=CC=CC=C2)C(=O)C2=C3C1=CC=C1C4=C5C(=CC=C6C(=O)N(CCC7=CC=CC=C7)C(=O)C(C=C4)=C56)C(C=C2)=C31,0,G1,A,None,None,Uncharged
A-6042,"InChI=1S/C20H38N2/c1-2-3-4-5-6-7-8-9-10-11-12-13-14-15-16-17-20-21-18-19-22-20/h18-19H,2-17H2,1H3,(H,21,22)",-7.214642713,CCCCCCCCCCCCCCCCCC1=[NH+]C=CN1,0,G1,A,None,None,Positive
A-6043,"InChI=1S/C13H14N4.C9H3Cl4NO2.CH3O.Na/c1-9-8-11(15)4-7-13(9)17-16-12-5-2-10(14)3-6-12;1-16-9(15)4-3(2-14)5(10)7(12)8(13)6(4)11;1-2;/h2-8H,14-15H2,1H3;1H3;1H3;/q;;-1;+1",-7.532414872,[Na+].CO.COC(=O)C1=C(Cl)C(Cl)=C(Cl)C(Cl)=C1C#N.CC1=CC(N)=CC=C1N=NC1=CC=C(N)C=C1,0,G1,A,None,Cosolvent Buffer,Positive
A-6044,"InChI=1S/C29H36O6/c1-21(2)27(30)34-19-7-17-32-25-13-9-23(10-14-25)29(5,6)24-11-15-26(16-12-24)33-18-8-20-35-28(31)22(3)4/h9-16H,1,3,7-8,17-20H2,2,4-6H3",-7.456475388,CC(=C)C(=O)OCCCOC1=CC=C(C=C1)C(C)(C)C1=CC=C(OCCCOC(=O)C(C)=C)C=C1,0,G1,A,None,None,Uncharged
A-6047,"InChI=1S/C18H19N5O8S/c1-12(24)30-9-7-21(8-10-31-13(2)25)15-5-3-14(4-6-15)19-20-18-16(22(26)27)11-17(32-18)23(28)29/h3-6,11H,7-10H2,1-2H3",-7.547293505,CC(=O)OCCN(CCOC(C)=O)C1=CC=C(C=C1)N=NC1=C(C=C(S1)[N+]([O-])=O)[N+]([O-])=O,0,G1,A,None,None,PureChargeSeparation
A-6048,"InChI=1S/C26H6Cl8N2O4/c27-14-10-11(15(28)19(32)18(14)31)24(38)9(23(10)37)7-5-4-6-2-1-3-8(22(6)35-7)36-25(39)12-13(26(36)40)17(30)21(34)20(33)16(12)29/h1-5,9H",-7.727396093,ClC1=C2C(=O)[C-](C(=O)C2=C(Cl)C(Cl)=C1Cl)C1=[NH+]C2=C(C=CC=C2C=C1)N1C(=O)C2=C(C1=O)C(Cl)=C(Cl)C(Cl)=C2Cl,0.292513326,G3,A,None,None,Zwitterion
A-6049,"InChI=1S/C19H18N6O2/c1-4-24(5-2)16-6-7-18(13(3)8-16)22-23-19-14(11-20)9-17(25(26)27)10-15(19)12-21/h6-10H,4-5H2,1-3H3",-7.47281997,CCN(CC)C1=CC=C(N=NC2=C(C=C(C=C2C#N)[N+]([O-])=O)C#N)C(C)=C1,0,G1,A,None,None,PureChargeSeparation
A-6050,"InChI=1S/C17H34O4/c1-2-3-4-5-6-7-8-9-10-11-12-13-17(20)21-15-16(19)14-18/h16,18-19H,2-15H2,1H3",-7.397875398,CCCCCCCCCCCCCC(=O)OCC(O)CO,0,G1,A,None,None,Uncharged
A-6051,"InChI=1S/C20H17ClN2O3/c1-3-23(4-2)14-7-5-12-9-15(20(24)26-18(12)11-14)19-22-16-10-13(21)6-8-17(16)25-19/h5-11H,3-4H2,1-2H3",-7.487633218,CCN(CC)C1=CC=C2C=C(C3=NC4=CC(Cl)=CC=C4O3)C(=O)OC2=C1,0,G1,A,None,None,Uncharged
A-6052,"InChI=1S/C17H13NO2.Cu/c19-16-10-9-12-5-1-2-6-13(12)14(16)11-18-15-7-3-4-8-17(15)20;/h1-11,19-20H;/q;+2/p-2",-7.432469538,OC1=CC=CC=C1N=CC1=C(O)C=CC2=CC=CC=C12,0,G1,A,None,None,Uncharged
A-6053,InChI=1S/2O.Pb,-7.325679101,O=[Pb]=O,0,G1,A,None,None,Uncharged
A-6054,"InChI=1S/C36H60O6/c1-4-7-10-13-16-19-22-27-40-34(37)31-25-26-32(35(38)41-28-23-20-17-14-11-8-5-2)33(30-31)36(39)42-29-24-21-18-15-12-9-6-3/h25-26,30H,4-24,27-29H2,1-3H3",-6.757182205,CCCCCCCCCOC(=O)C1=CC=C(C(=O)OCCCCCCCCC)C(=C1)C(=O)OCCCCCCCCC,0,G1,A,None,Below LoD Below LoQ,Uncharged