ID,InChI,Solubility,SMILEScurated,SD,Group,Dataset,Composition,Error,Charge
A-521,"InChI=1S/C10H12O3/c1-8(11)13-7-9-3-5-10(12-2)6-4-9/h3-6H,7H2,1-2H3",-2.474006642,COC1=CC=C(COC(C)=O)C=C1,0.007756083,G3,A,mono-constituent,None,Uncharged
A-523,InChI=1S/2FH.H3N/h2*1H;1H3,1.023394133,[F-],0,G1,A,None,Cosolvent Buffer,Negative
A-525,"InChI=1S/C9H9N5/c10-8-12-7(13-9(11)14-8)6-4-2-1-3-5-6/h1-5H,(H4,10,11,12,13,14)",-2.494168514,NC1=NC(N)=[NH+]C(=N1)C1=CC=CC=C1,0.136500636,G3,A,mono-constituent,None,Positive
A-526,"InChI=1S/C13H22O2/c1-5-12(14)15-11-8-6-10(7-9-11)13(2,3)4/h5,10-11H,1,6-9H2,2-4H3",-3.539328096,CC(C)(C)C1CCC(CC1)OC(=O)C=C,0.539431241,G4,A,mono-constituent,None,Uncharged
A-533,"InChI=1S/C8H6Br2/c1-2-6-5-7(9)3-4-8(6)10/h2-5H,1H2",-4.578730408,BrC1=CC=C(Br)C(C=C)=C1,0,G1,A,None,None,Uncharged
A-535,"InChI=1S/C18H15NO2/c1-12-6-2-5-9-16(12)19-18(21)15-10-13-7-3-4-8-14(13)11-17(15)20/h2-11,20H,1H3,(H,19,21)",-4.623441954,CC1=CC=CC=C1NC(=O)C1=CC2=CC=CC=C2C=C1O,0,G1,A,mono-constituent,None,Uncharged
A-539,"InChI=1S/C6H5Cl2N3O2/c1-13-6(12)2-5(9)11-4(8)3(7)10-2/h1H3,(H2,9,11)",-4.534838609,COC(=O)C1=NC(Cl)=C(Cl)N=C1N,0,G1,A,mono-constituent,None,Uncharged
A-541,InChI=1S/4O.3Pb,-4.008053211,O1[Pb]2O[Pb]1O[Pb]O2,0,G1,A,None,None,Uncharged
A-542,"InChI=1S/C26H51NO/c1-4-7-10-11-12-13-14-15-16-17-18-19-20-21-22-23-26(28)27(24-8-5-2)25-9-6-3/h15-16H,4-14,17-25H2,1-3H3/b16-15-",-4.788985441,CCCCCCCCC=CCCCCCCCC(=O)N(CCCC)CCCC,0,G1,A,UVCB,None,Uncharged
A-543,"InChI=1S/C14H22O2/c1-9(2)12(15)16-11-8-10-6-7-14(11,5)13(10,3)4/h10-11H,1,6-8H2,2-5H3",-4.544220436,CC(=C)C(=O)OC1CC2CCC1(C)C2(C)C,0.033587413,G3,A,mono-constituent,None,Uncharged
A-545,"InChI=1S/C11H22O2/c1-3-4-5-6-7-8-9-10-13-11(2)12/h3-10H2,1-2H3",-4.47086065,CCCCCCCCCOC(C)=O,0,G1,A,mono-constituent,None,Uncharged
A-547,"InChI=1S/2C30H62.C14H24.C14H10.C10H8.C10H20.C8H10/c1-5-9-11-13-14-15-16-18-22-26-30(8-4)28-24-20-19-23-27-29(7-3)25-21-17-12-10-6-2;1-3-5-7-9-11-13-15-17-19-21-23-25-27-29-30-28-26-24-22-20-18-16-14-12-10-8-6-4-2;2*1-2-6-12-10-14-8-4-3-7-13(14)9-11(12)5-1;1-2-6-10-8-4-3-7-9(10)5-1;1-3-9-5-7-10(4-2)8-6-9;1-7-4-3-5-8(2)6-7/h29-30H,5-28H2,1-4H3;3-30H2,1-2H3;11-14H,1-10H2;1-10H;1-8H;9-10H,3-8H2,1-2H3;3-6H,1-2H3",-5.405053261,CCCCCCCCCCCCCCCCCCCCCCCCCCCCCC,0.597257171,G2,A,None,Multi-constituent Substances,Uncharged
A-550,"InChI=1S/C14H10.C14H30.C10H8.C8H10.C6H6/c1-2-6-12-10-14-8-4-3-7-13(14)9-11(12)5-1;1-3-5-7-9-11-13-14-12-10-8-6-4-2;1-2-6-10-8-4-3-7-9(10)5-1;1-2-8-6-4-3-5-7-8;1-2-4-6-5-3-1/h1-10H;3-14H2,1-2H3;1-8H;3-7H,2H2,1H3;1-6H",-5.041697833,CCCCCCCCCCCCCC,0.597257171,G2,A,None,Multi-constituent Substances,Uncharged
A-551,InChI=1S/C10H8/c1-2-6-10-8-4-3-7-9(10)5-1/h1-8H,-4.311225605,C1=CC2=CC=CC=C2C=C1,0.718951863,G4,A,mono-constituent,None,Uncharged
A-553,"InChI=1S/C13H16O3/c14-12-9-5-4-8-11(12)13(15)16-10-6-2-1-3-7-10/h4-5,8-10,14H,1-3,6-7H2",-4.554076293,OC1=CC=CC=C1C(=O)OC1CCCCC1,0.032299623,G3,A,mono-constituent,None,Uncharged
A-554,"InChI=1S/C10H16/c1-8(2)10-6-4-9(3)5-7-10/h4,10H,1,5-7H2,2-3H3/t10-/m0/s1",-4.346837785,CC(=C)C1CCC(C)=CC1,0.174266418,G5,A,mono-constituent,Non Valid pH,Uncharged
A-555,"InChI=1S/C12H20O2/c1-3-5-7-9-11-14-12(13)10-8-6-4-2/h5-8H,3-4,9-11H2,1-2H3/b7-5-,8-6-",-4.509709484,CCC=CCCOC(=O)CC=CCC,0.066265832,G5,A,mono-constituent,None,Uncharged
A-556,"InChI=1S/C20H30O2/c1-3-20-11-10-16-15-7-5-14(22-2)12-13(15)4-6-17(16)18(20)8-9-19(20)21/h5,16-19,21H,3-4,6-12H2,1-2H3/t16-,17-,18+,19+,20+/m1/s1",-4.702513826,CCC12CCC3C(CCC4=C3CC=C(C4)OC)C1CCC2O,0,G1,A,None,None,Uncharged
A-557,"InChI=1S/C15H30O4/c1-2-3-4-5-6-7-8-9-10-11-15(18)19-13-14(17)12-16/h14,16-17H,2-13H2,1H3",-4.660234439,CCCCCCCCCCCC(=O)OCC(O)CO,0.389075625,G3,A,UVCB,None,Uncharged
A-558,"InChI=1S/C14H12O3/c1-17-11-7-8-12(13(15)9-11)14(16)10-5-3-2-4-6-10/h2-9,15H,1H3",-4.580253828,COC1=CC=C(C(=O)C2=CC=CC=C2)C(O)=C1,0.150514998,G3,A,mono-constituent,None,Uncharged
A-560,"InChI=1S/C17H26O/c1-10-6-7-15-16(4,5)14-9-17(10,15)8-13(11(14)2)12(3)18/h10,14-15H,6-9H2,1-5H3",-4.613478878,CC1CCC2C(C)(C)C3CC12CC(C(C)=O)=C3C,0,G1,A,mono-constituent,None,Uncharged
A-563,"InChI=1S/C9H10O2/c1-2-11-9(10)8-6-4-3-5-7-8/h3-7H,2H2,1H3",-2.39990224,CCOC(=O)C1=CC=CC=C1,0.06465483,G5,A,mono-constituent,None,Uncharged
A-564,"InChI=1S/C9H10O2/c10-9(11)7-6-8-4-2-1-3-5-8/h1-5H,6-7H2,(H,10,11)",-1.405751413,[O-]C(=O)CCC1=CC=CC=C1,0.097875706,G3,A,mono-constituent,None,Negative
A-566,"InChI=1S/C10H16O/c1-9(2)5-4-6-10(3)7-8-11/h5,7-8H,4,6H2,1-3H3/b10-7+",-2.411668206,CC(C)=CCCC(C)=CC=O,0.211683186,G5,A,multi-constituent,None,Uncharged
A-568,"InChI=1S/C11H20O/c1-2-3-4-5-7-10-8-6-9-11(10)12/h10H,2-9H2,1H3",-3.451515538,CCCCCCC1CCCC1=O,0,G1,A,mono-constituent,None,Uncharged
A-569,"InChI=1S/C12H22O/c1-9(2)7-8-12(5,6)11(13)10(3)4/h7,10H,8H2,1-6H3",-3.489215864,CC(C)C(=O)C(C)(C)CC=C(C)C,0,G1,A,None,Non Valid pH,Uncharged
A-570,"InChI=1S/C10H10O/c1-3-8-5-6-10(11)9(4-2)7-8/h3-7,11H,1-2H2",-3.394062684,OC1=CC=C(C=C)C=C1C=C,1.385426006,G2,A,None,None,Uncharged
A-574,"InChI=1S/C6H6ClNO/c7-4-1-2-5(8)6(9)3-4/h1-3,9H,8H2",-2.390659928,NC1=CC=C(Cl)C=C1O,0,G1,A,mono-constituent,None,Uncharged
A-575,"InChI=1S/C9H10O3/c1-2-12-8-5-3-7(4-6-8)9(10)11/h3-6H,2H2,1H3,(H,10,11)",-2.454899746,CCOC1=CC=C(C=C1)C([O-])=O,0,G1,A,mono-constituent,None,Negative
A-576,"InChI=1S/2CH2O3.2H2O.3Pb/c2*2-1(3)4;;;;;/h2*(H2,2,3,4);2*1H2;;;/q;;;;3*+2/p-6",-5.547231918,O.O.[Pb++].[Pb++].[Pb++].OC([O-])=O.OC([O-])=O,0.05598688,G3,A,multi-constituent,Multi-constituent Substances,Negative
A-578,"InChI=1S/C7H4Cl2F3N/c8-4-1-3(7(10,11)12)2-5(9)6(4)13/h1-2H,13H2",-3.591642752,NC1=C(Cl)C=C(C=C1Cl)C(F)(F)F,0,G1,A,mono-constituent,None,Uncharged
A-579,"InChI=1S/C18H22N2/c1-19-13-6-14-20-17-9-4-2-7-15(17)11-12-16-8-3-5-10-18(16)20/h2-5,7-10,19H,6,11-14H2,1H3",-3.657617041,C[NH2+]CCCN1C2=CC=CC=C2CCC2=CC=CC=C12,0.013808521,G3,A,mono-constituent,None,Positive
A-581,"InChI=1S/C15H17ClN2O2/c1-15(2,3)13(19)14(18-9-8-17-10-18)20-12-6-4-11(16)5-7-12/h4-10,14H,1-3H3",-3.703092646,CC(C)(C)C(=O)C(OC1=CC=C(Cl)C=C1)N1C=CN=C1,0.511453677,G2,A,mono-constituent,None,Uncharged
A-584,"InChI=1S/C10H22O2/c1-2-3-4-5-6-7-8-10(12)9-11/h10-12H,2-9H2,1H3",-2.478578955,CCCCCCCCC(O)CO,0,G1,A,multi-constituent,None,Uncharged
A-586,"InChI=1S/C10H18O/c1-3-8(2)9-6-4-5-7-10(9)11/h8-9H,3-7H2,1-2H3",-2.427057806,CCC(C)C1CCCCC1=O,0,G1,A,multi-constituent,None,Uncharged
A-587,"InChI=1S/C12H14O4/c1-8(2)12(14)16-10-5-4-9(7-13)6-11(10)15-3/h4-8H,1-3H3",-2.588667606,COC1=CC(C=O)=CC=C1OC(=O)C(C)C,0,G1,A,mono-constituent,Non Valid pH,Uncharged
A-588,"InChI=1S/C7H8/c1-7-5-3-2-4-6-7/h2-6H,1H3",-2.206298299,CC1=CC=CC=C1,0.023134699,G5,A,mono-constituent,None,Uncharged
A-594,"InChI=1S/C18H13ClN2O6S.Sr/c1-9-6-14(15(8-13(9)19)28(25,26)27)20-21-16-11-5-3-2-4-10(11)7-12(17(16)22)18(23)24;/h2-8,20H,1H3,(H,23,24)(H,25,26,27);/q;+2/p-2/b21-16+;",-3.944100371,CC1=CC(N=NC2=C(O)C(=CC3=CC=CC=C23)C([O-])=O)=C(C=C1Cl)S([O-])(=O)=O,1.792165612,G2,A,mono-constituent,None,Negative
A-596,"InChI=1S/C19H26O2/c1-18-9-7-13(20)11-12(18)3-4-14-15-5-6-17(21)19(15,2)10-8-16(14)18/h7,9,11,14-17,21H,3-6,8,10H2,1-2H3/t14-,15-,16-,17-,18-,19-/m0/s1",-3.700359651,CC12CCC3C(CCC4=CC(=O)C=CC34C)C1CCC2O,0,G1,A,mono-constituent,None,Uncharged
A-597,"InChI=1S/C13H17N/c1-4-11-5-7-12(8-6-11)9-13(2,3)10-14/h5-8H,4,9H2,1-3H3",-3.351339264,CCC1=CC=C(CC(C)(C)C#N)C=C1,0,G1,A,None,Non Valid pH,Uncharged
A-599,InChI=1S/C6H12Cl2/c7-5-3-1-2-4-6-8/h1-6H2,-3.43464733,ClCCCCCCCl,0,G1,A,mono-constituent,None,Uncharged
A-600,"InChI=1S/C13H18O2/c1-2-12(14)15-11-6-5-10-8-3-4-9(7-8)13(10)11/h5-6,8-11,13H,2-4,7H2,1H3",-3.558592794,CCC(=O)OC1C=CC2C3CCC(C3)C12,0,G1,A,multi-constituent,None,Uncharged
A-601,"InChI=1S/C8H10O/c1-2-9-8-6-4-3-5-7-8/h3-7H,2H2,1H3",-2.331841643,CCOC1=CC=CC=C1,0.57398886,G2,A,mono-constituent,None,Uncharged
A-602,"InChI=1S/C20H18ClF3N2O6/c1-5-8-31-17(29)19(2,3)32-16(28)12-9-11(6-7-13(12)21)26-15(27)10-14(20(22,23)24)25(4)18(26)30/h5-7,9-10H,1,8H2,2-4H3",-4.676528089,CN1C(=O)N(C(=O)C=C1C(F)(F)F)C1=CC=C(Cl)C(=C1)C(=O)OC(C)(C)C(=O)OCC=C,0,G1,A,mono-constituent,None,Uncharged
A-604,"InChI=1S/3C7H8O3S.Fe/c3*1-6-2-4-7(5-3-6)11(8,9)10;/h3*2-5H,1H3,(H,8,9,10);/q;;;+3/p-3",-0.008033112,CC1=CC=C(C=C1)S([O-])(=O)=O,0,G1,A,mono-constituent,None,Negative
A-606,"InChI=1S/C11H12O3/c1-2-8-13-11(12)9-14-10-6-4-3-5-7-10/h2-7H,1,8-9H2",-2.536373209,C=CCOC(=O)COC1=CC=CC=C1,0,G1,A,mono-constituent,None,Uncharged
A-607,InChI=1S/HI.H3N/h1H;1H3,1.08677602,[I-],0,G1,A,None,Cosolvent Buffer,Negative
A-610,"InChI=1S/C6H10O4.C4H10N2/c7-5(8)3-1-2-4-6(9)10;1-2-6-4-3-5-1/h1-4H2,(H,7,8)(H,9,10);5-6H,1-4H2",-0.623286686,[O-]C(=O)CCCCC([O-])=O,0.038738164,G3,A,mono-constituent,Cosolvent Buffer,Negative
A-614,"InChI=1S/C9H14N2O4S/c1-11-16(12,13)9-5-7(14-2)6(10)4-8(9)15-3/h4-5,11H,10H2,1-3H3",-3.651080563,CNS(=O)(=O)C1=CC(OC)=C(N)C=C1OC,0,G1,A,mono-constituent,None,Uncharged
A-616,"InChI=1S/CH4N2O.H3O4P/c2-1(3)4;1-5(2,3)4/h(H4,2,3,4);(H3,1,2,3,4)",0.537602002,OP([O-])([O-])=O,0,G1,A,mono-constituent,Cosolvent Buffer,Negative
A-617,"InChI=1S/CH4N2O/c2-1(3)4/h(H4,2,3,4)",0.957840099,NC(N)=O,0.029394044,G3,A,mono-constituent,None,Uncharged
A-618,"InChI=1S/C7H6N2O/c10-7-8-5-3-1-2-4-6(5)9-7/h1-4H,(H2,8,9,10)",-2.392751997,O=C1NC2=CC=CC=C2N1,0,G1,A,mono-constituent,None,Uncharged
A-619,InChI=1S/5CO.Fe/c5*1-2;,-3.292023351,C#[O+],0.178273662,G3,A,None,None,Positive
A-620,"InChI=1S/C12H18O4/c1-4-11(13)15-8-6-10(3)7-9-16-12(14)5-2/h4-5,10H,1-2,6-9H2,3H3",-2.621433551,CC(CCOC(=O)C=C)CCOC(=O)C=C,0,G1,A,mono-constituent,None,Uncharged
A-622,"InChI=1S/C6H6ClN/c7-5-2-1-3-6(8)4-5/h1-4H,8H2",-1.373368413,NC1=CC=CC(Cl)=C1,0.026823725,G3,A,mono-constituent,None,Uncharged
A-624,"InChI=1S/C12H20O2/c1-9(13)14-12-7-6-10-4-2-3-5-11(10)8-12/h10-12H,2-8H2,1H3",-3.560504415,CC(=O)OC1CCC2CCCCC2C1,0,G1,A,multi-constituent,None,Uncharged
A-625,"InChI=1S/C24H42O/c1-5-6-7-8-9-10-11-12-13-14-15-16-17-21(3)23-19-20(2)18-22(4)24(23)25/h18-19,21,25H,5-17H2,1-4H3",-7.335707323,CCCCCCCCCCCCCCC(C)C1=CC(C)=CC(C)=C1O,0.485985638,G3,A,mono-constituent,None,Uncharged
A-626,"InChI=1S/C5H8/c1-2-4-5-3-1/h1-2H,3-5H2",-2.104914482,C1CC=CC1,0.2621169,G3,A,mono-constituent,None,Uncharged
A-628,"InChI=1S/C17H15O6P/c18-16(19)9-11(17(20)21)10-24(22)15-8-4-2-6-13(15)12-5-1-3-7-14(12)23-24/h1-8,11H,9-10H2,(H,18,19)(H,20,21)",-2.813509506,[O-]C(=O)CC(CP1(=O)OC2=CC=CC=C2C2=CC=CC=C12)C([O-])=O,0,G1,A,mono-constituent,Non Valid pH,Negative
A-638,"InChI=1S/CH4.H2O4S/c;1-5(2,3)4/h1H4;(H2,1,2,3,4)",-3.333093505,C,0.86869123,G4,A,UVCB,Cosolvent Buffer,Uncharged
A-639,"InChI=1S/C2F6/c3-1(4,5)2(6,7)8",-2.423907212,FC(F)(F)C(F)(F)F,0.912496394,G2,A,mono-constituent,None,Uncharged
A-640,"InChI=1S/C12H20O/c1-11(2)7-6-9-12(3)8-4-5-10-13/h7-8,10H,4-6,9H2,1-3H3/b12-8-",-3.538303545,CC(C)=CCCC(C)=CCCC=O,0,G1,A,multi-constituent,None,Uncharged
A-645,"InChI=1S/C10H10O2/c1-8(2)10(11)12-9-6-4-3-5-7-9/h3-7H,1H2,2H3",-2.494851361,CC(=C)C(=O)OC1=CC=CC=C1,0,G1,A,mono-constituent,None,Uncharged
A-646,"InChI=1S/2C5H8O2.Co/c2*1-4(6)3-5(2)7;/h2*3,6H,1-2H3;/q;;+2/p-2",-1.697530099,CC(O)=CC(C)=O,0.01698804,G3,A,None,None,Uncharged
A-647,"InChI=1S/C10H14O/c1-8-5-4-6-10(2,3)9(8)7-11/h4-5,7H,6H2,1-3H3",-2.465007757,CC1=C(C=O)C(C)(C)CC=C1,0,G1,A,mono-constituent,None,Uncharged
A-648,"InChI=1S/C17H29NO/c1-16(2,3)13-9-12(11-18(7)8)10-14(15(13)19)17(4,5)6/h9-10,19H,11H2,1-8H3",-2.711387028,C[NH+](C)CC1=CC(=C(O)C(=C1)C(C)(C)C)C(C)(C)C,1.210300847,G4,A,mono-constituent,Non Valid pH,Positive
A-649,"InChI=1S/C12H22O/c1-10(13)9-12(2,3)11-7-5-4-6-8-11/h11H,4-9H2,1-3H3",-3.548153643,CC(=O)CC(C)(C)C1CCCCC1,0,G1,A,mono-constituent,None,Uncharged
A-652,"InChI=1S/C10H20O/c1-7(2)9-5-4-8(3)6-10(9)11/h7-11H,4-6H2,1-3H3",-2.488009121,CC(C)C1CCC(C)CC1O,0.081283066,G5,A,multi-constituent,None,Uncharged
A-653,InChI=1S/Co.Mo.4O/q+2;;;;2*-1,-2.634320541,[O-][Mo]([O-])(=O)=O,0,G1,A,mono-constituent,None,Negative
A-655,"InChI=1S/C12H12N2/c13-10-6-8-12(9-7-10)14-11-4-2-1-3-5-11/h1-9,14H,13H2",-2.563130476,NC1=CC=C(NC2=CC=CC=C2)C=C1,0,G1,A,mono-constituent,Non Valid pH,Uncharged
A-656,"InChI=1S/C12H17NO/c1-4-10(2)12(14)13(3)11-8-6-5-7-9-11/h5-10H,4H2,1-3H3",-1.580579513,CCC(C)C(=O)N(C)C1=CC=CC=C1,0,G1,A,mono-constituent,None,Uncharged
A-657,"InChI=1S/C5H12O2Si/c1-5-8(4,6-2)7-3/h5H,1H2,2-4H3",0.577623585,CO[Si](C)(OC)C=C,0,G1,A,mono-constituent,None,Uncharged
A-659,"InChI=1S/C6H6N2O/c7-6(9)5-2-1-3-8-4-5/h1-4H,(H2,7,9)",0.612158315,NC(=O)C1=CC=CN=C1,0,G1,A,mono-constituent,None,Uncharged
A-660,"InChI=1S/2C7H9NO.H2O4S/c2*1-8-6-2-4-7(9)5-3-6;1-5(2,3)4/h2*2-5,8-9H,1H3;(H2,1,2,3,4)",-0.838079267,CNC1=CC=C(O)C=C1,0.106498411,G3,A,None,Cosolvent Buffer,Uncharged
A-661,"InChI=1S/C20H14N2O10S3.3Na/c23-20-18(35(30,31)32)10-11-9-12(33(24,25)26)5-6-13(11)19(20)22-21-16-7-8-17(34(27,28)29)15-4-2-1-3-14(15)16;;;/h1-10,21H,(H,24,25,26)(H,27,28,29)(H,30,31,32);;;/q;3*+1/p-3/b22-19+;;;",-1.082414087,OC1=C(N=NC2=CC=C(C3=CC=CC=C23)S([O-])(=O)=O)C2=CC=C(C=C2C=C1S([O-])(=O)=O)S([O-])(=O)=O,0.039590623,G3,A,mono-constituent,None,Negative
A-662,"InChI=1S/C8H10O/c1-6-3-7(2)5-8(9)4-6/h3-5,9H,1-2H3",-1.387983905,CC1=CC(O)=CC(C)=C1,0.005275091,G3,A,mono-constituent,None,Uncharged
A-665,"InChI=1S/C15H20O6/c1-5-12(16)19-9-15(8-4,10-20-13(17)6-2)11-21-14(18)7-3/h5-7H,1-3,8-11H2,4H3",-2.772789495,CCC(COC(=O)C=C)(COC(=O)C=C)COC(=O)C=C,0,G1,A,mono-constituent,None,Uncharged
A-666,"InChI=1S/C9H18O/c1-7(2)5-9(10)6-8(3)4/h7-8H,5-6H2,1-4H3",-2.454057846,CC(C)CC(=O)CC(C)C,0.357211482,G5,A,mono-constituent,None,Uncharged
A-667,"InChI=1S/C11H14O2/c1-4-5-9-6-7-10(12-2)11(8-9)13-3/h4,6-8H,1,5H2,2-3H3",-2.55201324,COC1=CC=C(CC=C)C=C1OC,0,G1,A,mono-constituent,None,Uncharged
A-668,"InChI=1S/C10H9NO4S/c11-7-1-2-9-6(3-7)4-8(5-10(9)12)16(13,14)15/h1-5,12H,11H2,(H,13,14,15)",-2.679885573,NC1=CC2=CC(=CC(O)=C2C=C1)S([O-])(=O)=O,0.048455007,G3,A,mono-constituent,None,Negative
A-669,"InChI=1S/C16H12N2O7S2.Al/c19-15-8-1-10-9-13(27(23,24)25)6-7-14(10)16(15)18-17-11-2-4-12(5-3-11)26(20,21)22;/h1-9,19H,(H,20,21,22)(H,23,24,25);/q;+3/p-3",-2.936886553,OC1=C(N=NC2=CC=C(C=C2)S([O-])(=O)=O)C2=CC=C(C=C2C=C1)S([O-])(=O)=O,0,G1,A,multi-constituent,None,Negative
A-673,"InChI=1S/C15H24O4/c1-4-5-6-7-13-12(10-15(17)18-3)8-9-14(13)19-11(2)16/h12H,4-10H2,1-3H3",-3.721988672,CCCCCC1=C(CCC1CC(=O)OC)OC(C)=O,0,G1,A,None,None,Uncharged
A-674,"InChI=1S/C8H12/c1-2-8-6-4-3-5-7-8/h2-4,8H,1,5-7H2",-3.335193031,C=CC1CCC=CC1,0,G1,A,mono-constituent,None,Uncharged
A-675,"InChI=1S/C28H34O15/c1-10-21(32)23(34)25(36)27(40-10)39-9-19-22(33)24(35)26(37)28(43-19)41-12-6-14(30)20-15(31)8-17(42-18(20)7-12)11-3-4-16(38-2)13(29)5-11/h3-7,10,17,19,21-30,32-37H,8-9H2,1-2H3/t10-,17-,19+,21-,22+,23+,24-,25+,26+,27+,28+/m0/s1",-5.010485646,COC1=CC=C(C=C1O)C1CC(=O)C2=C(O)C=C(OC3OC(COC4OC(C)C(O)C(O)C4O)C(O)C(O)C3O)C=C2O1,0.12084849,G5,A,mono-constituent,None,Uncharged
A-676,"InChI=1S/C22H45NO2/c1-2-3-4-5-6-7-8-9-10-11-12-13-14-15-16-17-18-23(19-21-24)20-22-25/h9-10,24-25H,2-8,11-22H2,1H3/b10-9+",-4.78011829,CCCCCCCCC=CCCCCCCCC[NH+](CCO)CCO,0,G1,A,mono-constituent,Non Valid pH,Positive
A-677,"InChI=1S/C21H30O6/c1-4-7-12-25-19(22)16-10-11-17(20(23)26-13-8-5-2)18(15-16)21(24)27-14-9-6-3/h10-11,15H,4-9,12-14H2,1-3H3",-4.807173711,CCCCOC(=O)C1=CC=C(C(=O)OCCCC)C(=C1)C(=O)OCCCC,0,G1,A,mono-constituent,None,Uncharged
A-679,"InChI=1S/C22H27N5O2/c1-3-17(2)27-22(29)26(16-23-27)20-6-4-18(5-7-20)24-12-14-25(15-13-24)19-8-10-21(28)11-9-19/h4-11,16-17,28H,3,12-15H2,1-2H3",-4.828521956,CCC(C)N1N=CN(C1=O)C1=CC=C(C=C1)N1CCN(CC1)C1=CC=C(O)C=C1,0,G1,A,None,None,Uncharged
A-680,"InChI=1S/C9H18O5Si/c1-5-9(10)14-7-6-8-15(11-2,12-3)13-4/h5H,1,6-8H2,2-4H3",-4.606388779,CO[Si](CCCOC(=O)C=C)(OC)OC,0,G1,A,mono-constituent,None,Uncharged
A-683,"InChI=1S/C11H24O/c1-2-3-4-5-6-7-8-9-10-11-12/h12H,2-11H2,1H3",-4.480440668,CCCCCCCCCCCO,0,G1,A,mono-constituent,None,Uncharged
A-686,InChI=1S/BO2.Ba/c2-1-3;/q-2;+2,-2.340733519,O[B]O,0,G1,A,None,None,Uncharged
A-689,"InChI=1S/C13H20O2/c1-5-11(14)15-10-8-9-6-7-13(10,4)12(9,2)3/h5,9-10H,1,6-8H2,2-4H3/t9-,10?,13+/m0/s1",-4.583092455,CC1(C)C2CCC1(C)C(C2)OC(=O)C=C,0.280533145,G3,A,mono-constituent,None,Uncharged
A-690,"InChI=1S/C18H11NO2/c20-17-12-6-2-3-7-13(12)18(21)16(17)15-10-9-11-5-1-4-8-14(11)19-15/h1-10,16H",-4.701186127,O=C1[C-](C(=O)C2=CC=CC=C12)C1=[NH+]C2=CC=CC=C2C=C1,0.753776249,G2,A,mono-constituent,None,Zwitterion
A-691,"InChI=1S/C13H26O4/c1-6-8-9-11(7-2)10-15-12(14)16-17-13(3,4)5/h11H,6-10H2,1-5H3",-4.659958513,CCCCC(CC)COC(=O)OOC(C)(C)C,0,G1,A,mono-constituent,Unstable,Uncharged
A-692,"InChI=1S/C12H24O2Si/c1-13-15(14-2,11-7-3-4-8-11)12-9-5-6-10-12/h11-12H,3-10H2,1-2H3",-4.632799679,CO[Si](OC)(C1CCCC1)C1CCCC1,0.526119809,G2,A,mono-constituent,None,Uncharged
A-693,"InChI=1S/C13H22O2/c1-9(2)12(14)15-11-6-10(3)7-13(4,5)8-11/h10-11H,1,6-8H2,2-5H3",-4.598598509,CC1CC(CC(C)(C)C1)OC(=O)C(C)=C,0,G1,A,None,None,Uncharged
A-697,"InChI=1S/C6H7N.C4H8O/c7-6-4-2-1-3-5-6;1-2-3-4-5/h1-5H,7H2;4H,2-3H2,1H3",-4.50210133,CCCC=O,0,G1,A,UVCB,Cosolvent Buffer,Uncharged
A-698,"InChI=1S/2C12H24O2.Zn/c2*1-2-3-4-5-6-7-8-9-10-11-12(13)14;/h2*2-11H2,1H3,(H,13,14);/q;;+2/p-2",-4.950531484,CCCCCCCCCCCC([O-])=O,0,G1,A,mono-constituent,None,Negative
A-699,"InChI=1S/C18H36O2.C8H23N5/c1-2-3-4-5-6-7-8-9-10-11-12-13-14-15-16-17-18(19)20;9-1-3-11-5-7-13-8-6-12-4-2-10/h2-17H2,1H3,(H,19,20);11-13H,1-10H2",-4.960419449,CCCCCCCCCCCCCCCCCC([O-])=O,0,G1,A,UVCB,Cosolvent Buffer,Negative
A-701,"InChI=1S/C13H16O3/c1-2-3-4-7-10-16-13(15)11-8-5-6-9-12(11)14/h3-6,8-9,14H,2,7,10H2,1H3/b4-3+",-4.643981404,CCC=CCCOC(=O)C1=CC=CC=C1O,0,G1,A,None,None,Uncharged
A-705,"InChI=1S/C10H18O/c1-7(2)9-5-4-8(3)6-10(9)11/h7-9H,4-6H2,1-3H3/t8-,9+/m1/s1",-2.491877231,CC(C)C1CCC(C)CC1=O,0.10505924,G5,A,mono-constituent,None,Uncharged
A-706,"InChI=1S/C9H7NO6/c1-16-9(13)6-3-2-5(8(11)12)4-7(6)10(14)15/h2-4H,1H3,(H,11,12)",-2.657001848,COC(=O)C1=CC=C(C=C1[N+]([O-])=O)C([O-])=O,0,G1,A,mono-constituent,Non Valid pH,Negative
A-708,"InChI=1S/C9H12/c1-7-4-8(2)6-9(3)5-7/h4-6H,1-3H3",-3.382657059,CC1=CC(C)=CC(C)=C1,0.007091152,G3,A,mono-constituent,None,Uncharged
A-709,"InChI=1S/C12H20O2/c1-6-10(2)8-7-9-12(4,5)14-11(3)13/h6H,1-2,7-9H2,3-5H3",-3.597416499,CC(=O)OC(C)(C)CCCC(=C)C=C,0.187667695,G3,A,UVCB,None,Uncharged
A-713,"InChI=1S/C7H6ClNO2/c1-5-2-3-6(9(10)11)4-7(5)8/h2-4H,1H3",-3.544278177,CC1=CC=C(C=C1Cl)[N+]([O-])=O,0,G1,A,mono-constituent,None,PureChargeSeparation
A-714,"InChI=1S/C21H46N.ClH/c1-5-6-7-8-9-10-11-12-13-14-15-16-17-18-19-20-21-22(2,3)4;/h5-21H2,1-4H3;1H/q+1;/p-1",-3.851456788,CCCCCCCCCCCCCCCCCC[N+](C)(C)C,0,G1,A,mono-constituent,None,Positive
A-718,"InChI=1S/C9H21N/c1-4-7-10(8-5-2)9-6-3/h4-9H2,1-3H3",-2.472220255,CCC[NH+](CCC)CCC,0.099276176,G5,A,mono-constituent,None,Positive
A-719,InChI=1S/H3N/h1H3,1.451806889,[NH4+],0.029165464,G5,A,mono-constituent,None,Positive
A-722,"InChI=1S/C20H34N4O4/c25-17-11-5-3-9-15-23(17)19(27)21-13-7-1-2-8-14-22-20(28)24-16-10-4-6-12-18(24)26/h1-16H2,(H,21,27)(H,22,28)",-3.906400656,O=C(NCCCCCCNC(=O)N1CCCCCC1=O)N1CCCCCC1=O,0,G1,A,mono-constituent,None,Uncharged
A-724,"InChI=1S/C10H20O2/c1-8(2)5-6-12-10(11)7-9(3)4/h8-9H,5-7H2,1-4H3",-3.554059535,CC(C)CCOC(=O)CC(C)C,0,G1,A,mono-constituent,None,Uncharged
A-725,"InChI=1S/C10H22O/c1-3-5-6-8-10(9-11)7-4-2/h10-11H,3-9H2,1-2H3",-3.518198523,CCCCCC(CO)CCC,0.157677981,G5,A,mono-constituent,None,Uncharged
A-726,"InChI=1S/C14H16N2/c15-13-7-3-11(4-8-13)1-2-12-5-9-14(16)10-6-12/h3-10H,1-2,15-16H2",-3.645700574,NC1=CC=C(CCC2=CC=C(N)C=C2)C=C1,0,G1,A,mono-constituent,None,Uncharged
A-728,"InChI=1S/C7H7NO2/c1-10-7(9)6-3-2-4-8-5-6/h2-5H,1H3",-0.459550859,COC(=O)C1=CC=CN=C1,0,G1,A,mono-constituent,None,Uncharged
A-731,"InChI=1S/C4H6O6.Ca/c5-1(3(7)8)2(6)4(9)10;/h1-2,5-6H,(H,7,8)(H,9,10);/q;+2/t1-,2-;/m1./s1",-2.602434694,OC(C(O)C([O-])=O)C([O-])=O,0.76584343,G4,A,None,None,Negative
A-738,"InChI=1S/C11H14O2/c1-11(2,3)9-6-4-8(5-7-9)10(12)13/h4-7H,1-3H3,(H,12,13)",-3.577962337,CC(C)(C)C1=CC=C(C=C1)C([O-])=O,1.201044774,G4,A,mono-constituent,None,Negative
A-740,InChI=1S/ClH.Cu/h1H;/q;+1/p-1,-3.32353295,[Cu+],0,G1,A,None,None,Positive
A-741,InChI=1S/Mo.Ni.4O/q2*+2;4*-1,-1.672068062,O[Mo++](O)(O)O,0,G1,A,None,None,Uncharged