ID,InChI,Solubility,SMILEScurated,SD,Group,Dataset,Composition,Error,Charge
A-4133,"InChI=1S/C6H14O/c1-3-5-6-7-4-2/h3-6H2,1-2H3",-1.54996066,CCCCOCC,0,G1,A,mono-constituent,None,Uncharged
A-4136,"InChI=1S/C20H14N6O6S/c1-2-32-19(29)15(23-22-11-7-9-12(10-8-11)26(30)31)16(27)18-24-25-14-6-4-3-5-13(14)17(28)21-20(25)33-18/h3-10,22H,2H2,1H3/b23-15+",-2.2216331,CCOC(=O)C(=N[N-]C1=CC=C(C=C1)[N+]([O-])=O)C(=O)C1=NN2C(S1)=NC(=O)C1=CC=CC=C21,0,G1,A,None,None,Negative
A-4138,"InChI=1S/C9H13N5/c1-6-4-2-3-5-7(6)13-9(12)14-8(10)11/h2-5H,1H3,(H6,10,11,12,13,14)",-1.842241499,CC1=CC=CC=C1NC(=[NH2+])[NH+]=C(N)N,0,G1,A,mono-constituent,None,Positive
A-4142,"InChI=1S/C10H18O2/c1-5-10(4)7-6-8(12-10)9(2,3)11/h5,8,11H,1,6-7H2,2-4H3",-1.799728458,CC(C)(O)C1CCC(C)(O1)C=C,0,G1,A,multi-constituent,Non Valid pH,Uncharged
A-4143,"InChI=1S/C11H13NO2/c1-8-5-3-4-6-10(8)12-11(14)7-9(2)13/h3-6H,7H2,1-2H3,(H,12,14)",-1.850192261,CC(=O)CC(=O)NC1=CC=CC=C1C,0.022878745,G3,A,mono-constituent,None,Uncharged
A-4144,"InChI=1S/C6H14N4O2/c1-3(2)4(9-5(7)11)10-6(8)12/h3-4H,1-2H3,(H3,7,9,11)(H3,8,10,12)",-1.809694359,CC(C)C(NC(N)=O)NC(N)=O,0.477121255,G3,A,mono-constituent,None,Uncharged
A-4145,"InChI=1S/C2H3ClF2/c3-1-2(4)5/h2H,1H2",-0.922963209,FC(F)CCl,0,G1,A,mono-constituent,Non Valid pH,Uncharged
A-4146,"InChI=1S/C12H18O2/c1-11(2,13)9-6-5-7-10(8-9)12(3,4)14/h5-8,13-14H,1-4H3",-1.863533046,CC(C)(O)C1=CC(=CC=C1)C(C)(C)O,0.033240029,G3,A,mono-constituent,None,Uncharged
A-4147,"InChI=1S/C9H13N/c1-3-8-6-4-5-7(2)9(8)10/h4-6H,3,10H2,1-2H3",-1.706127176,CCC1=CC=CC(C)=C1N,0.065710432,G3,A,mono-constituent,None,Uncharged
A-4149,"InChI=1S/Ca.H2O4S/c;1-5(2,3)4/h;(H2,1,2,3,4)/q+2;/p-2",-1.715687645,[O-]S([O-])(=O)=O,0.024468842,G5,A,mono-constituent,None,Negative
A-4151,"InChI=1S/C11H13NO3/c1-8(13)7-11(14)12-9-3-5-10(15-2)6-4-9/h3-6H,7H2,1-2H3,(H,12,14)",-1.901477183,COC1=CC=C(NC(=O)CC(C)=O)C=C1,0,G1,A,mono-constituent,None,Uncharged
A-4152,"InChI=1S/C10H12O2/c1-8-11-7-10(12-8)9-5-3-2-4-6-9/h2-6,8,10H,7H2,1H3",-1.805450609,CC1OCC(O1)C1=CC=CC=C1,0,G1,A,multi-constituent,Non Valid pH,Uncharged
A-4153,"InChI=1S/C10H16O/c1-3-4-9-5-8(2)6-10(11)7-9/h6,9H,3-5,7H2,1-2H3",-1.772587094,CCCC1CC(C)=CC(=O)C1,0,G1,A,mono-constituent,Non Valid pH,Uncharged
A-4154,"InChI=1S/C9H7NO2/c1-7(11)12-9-4-2-8(6-10)3-5-9/h2-5H,1H3",-1.799017293,CC(=O)OC1=CC=C(C=C1)C#N,0,G1,A,mono-constituent,Non Valid pH,Uncharged
A-4156,"InChI=1S/C13H11NO6/c15-10(16)6-5-9(13(19)20)14-11(17)7-3-1-2-4-8(7)12(14)18/h1-4,9H,5-6H2,(H,15,16)(H,19,20)/t9-/m0/s1",-1.446331686,[O-]C(=O)CCC(N1C(=O)C2=CC=CC=C2C1=O)C([O-])=O,0,G1,A,mono-constituent,None,Negative
A-4157,"InChI=1S/2C10H18/c2*1-8(2)10-6-4-9(3)5-7-10/h2*4,8,10H,5-7H2,1-3H3",-5.495255436,CC(C)C1CCC(C)=CC1,0,G1,A,None,None,Uncharged
A-4158,InChI=1S/C2H2Cl2/c1-2(3)4/h1H2,-1.588580927,ClC(Cl)=C,0.022859537,G3,A,mono-constituent,None,Uncharged
A-4162,"InChI=1S/C10H16O/c1-7(2)9-5-4-8(3)6-10(9)11/h6-7,9H,4-5H2,1-3H3/t9-/m1/s1",-1.78824369,CC(C)C1CCC(C)=CC1=O,0,G1,A,mono-constituent,Non Valid pH,Uncharged
A-4163,"InChI=1S/C8H12N2O3S/c1-8(2)4(7(12)13)10-5(11)3(9)6(10)14-8/h3-4,6H,9H2,1-2H3,(H,12,13)/t3-,4+,6-/m1/s1",-1.944045108,CC1(C)SC2C([NH3+])C(=O)N2C1C([O-])=O,0,G1,A,mono-constituent,None,Zwitterion
A-4165,"InChI=1S/C10H23N.B.3ClH/c1-4-5-6-7-8-9-10-11(2)3;;;;/h4-10H2,1-3H3;;3*1H/q;+3;;;/p-3",-5.465370193,CCCCCCCC[NH+](C)C,0,G1,A,None,None,Positive
A-4167,"InChI=1S/C6H5ClS/c7-5-3-1-2-4-6(5)8/h1-4,8H",-1.780035133,[S-]C1=CC=CC=C1Cl,0.439450989,G5,A,mono-constituent,None,Negative
A-4169,"InChI=1S/C5H5N3O2/c6-4-3(5(9)10)7-1-2-8-4/h1-2H,(H2,6,8)(H,9,10)",-1.763159597,NC1=NC=CN=C1C([O-])=O,0,G1,A,mono-constituent,None,Negative
A-4170,"InChI=1S/C9H12ClN/c1-11(2)7-8-5-3-4-6-9(8)10/h3-6H,7H2,1-2H3",-1.849355422,C[NH+](C)CC1=CC=CC=C1Cl,0.856605222,G2,A,mono-constituent,None,Positive
A-4171,"InChI=1S/2C17H29O4P.Ca/c2*1-8-21-22(19,20)11-12-9-13(16(2,3)4)15(18)14(10-12)17(5,6)7;/h2*9-10,18H,8,11H2,1-7H3,(H,19,20);/q;;+2/p-2",-2.46167357,CCOP([O-])(=O)CC1=CC(=C(O)C(=C1)C(C)(C)C)C(C)(C)C,0,G1,A,mono-constituent,None,Negative
A-4175,"InChI=1S/C12H18O7/c1-3-5-16-11(13)18-9-7-15-8-10-19-12(14)17-6-4-2/h3-4H,1-2,5-10H2",-2.06526472,C=CCOC(=O)OCCOCCOC(=O)OCC=C,0,G1,A,mono-constituent,None,Uncharged
A-4176,"InChI=1S/C8H16O/c1-2-3-4-5-6-7-8-9/h2,9H,1,3-8H2",-1.744232864,OCCCCCCC=C,0.016080929,G3,A,mono-constituent,None,Uncharged
A-4178,"InChI=1S/C6H5ClO2S/c7-10(8,9)6-4-2-1-3-5-6/h1-5H",-1.88532188,ClS(=O)(=O)C1=CC=CC=C1,0,G1,A,mono-constituent,None,Uncharged
A-4179,"InChI=1S/C13H26O3/c1-9(2)12-5-4-10(3)6-13(12)16-8-11(15)7-14/h9-15H,4-8H2,1-3H3",-2.006358589,CC(C)C1CCC(C)CC1OCC(O)CO,0,G1,A,multi-constituent,None,Uncharged
A-4180,"InChI=1S/C8H8O3/c1-11-8-3-2-6(5-9)4-7(8)10/h2-5,10H,1H3",-1.826243245,COC1=CC=C(C=O)C=C1O,0,G1,A,mono-constituent,Cosolvent Buffer,Uncharged
A-4181,"InChI=1S/C8H8O/c1-7-2-4-8(6-9)5-3-7/h2-6H,1H3",-1.723701533,CC1=CC=C(C=O)C=C1,0.479042924,G3,A,mono-constituent,None,Uncharged
A-4182,"InChI=1S/C6H6N2O3/c7-5-2-1-4(9)3-6(5)8(10)11/h1-3,9H,7H2",-1.833764651,NC1=CC=C(O)C=C1[N+]([O-])=O,0,G1,A,mono-constituent,None,PureChargeSeparation
A-4184,"InChI=1S/C6H5NO3/c8-6-4-2-1-3-5(6)7(9)10/h1-4,8H",-1.802914236,[O-]C1=CC=CC=C1[N+]([O-])=O,0.032277333,G5,A,mono-constituent,None,Negative
A-4185,"InChI=1S/C10H16O/c1-7-4-8(2)10(6-11)9(3)5-7/h4,6,8-10H,5H2,1-3H3",-1.844063724,CC1CC(C)=CC(C)C1C=O,0,G1,A,multi-constituent,None,Uncharged
A-4186,"InChI=1S/C9H16O2/c1-2-3-4-5-8-6-7-9(10)11-8/h8H,2-7H2,1H3/t8-/m0/s1",-1.85529404,CCCCCC1CCC(=O)O1,0,G1,A,None,None,Uncharged
A-4188,"InChI=1S/C11H14O2/c1-8-5-4-6-9(2)11(8)13-7-10(3)12/h4-6H,7H2,1-3H3",-1.918544784,CC(=O)COC1=C(C)C=CC=C1C,0,G1,A,mono-constituent,None,Uncharged
A-4189,"InChI=1S/C8H11NO2/c1-10-6-3-4-8(11-2)7(9)5-6/h3-5H,9H2,1-2H3",-1.858869039,COC1=CC=C(OC)C(N)=C1,0,G1,A,mono-constituent,None,Uncharged
A-4192,"InChI=1S/C12H15NO2/c1-8-4-5-11(9(2)6-8)13-12(15)7-10(3)14/h4-6H,7H2,1-3H3,(H,13,15)",-1.990078682,CC(=O)CC(=O)NC1=CC=C(C)C=C1C,0,G1,A,mono-constituent,Non Valid pH,Uncharged
A-4193,"InChI=1S/C10H13NO2/c1-7-4-5-10(13-3)9(6-7)11-8(2)12/h4-6H,1-3H3,(H,11,12)",-1.931164755,COC1=CC=C(C)C=C1NC(C)=O,0,G1,A,mono-constituent,Non Valid pH,Uncharged
A-4197,"InChI=1S/C10H10N2O/c1-8-7-10(13)12(11-8)9-5-3-2-4-6-9/h2-6H,7H2,1H3",-1.925085284,CC1=CC(=O)N(N1)C1=CC=CC=C1,0.058499473,G3,A,mono-constituent,None,Uncharged
A-4198,"InChI=1S/C7H14O/c1-2-3-4-5-6-7-8/h7H,2-6H2,1H3",-1.750124429,CCCCCCC=O,0.112949851,G5,A,mono-constituent,None,Uncharged
A-4200,"InChI=1S/C7H12O2/c1-5-6(8)9-7(2,3)4/h5H,1H2,2-4H3",-1.804593715,CC(C)(C)OC(=O)C=C,0.194691103,G3,A,mono-constituent,None,Uncharged
A-4202,"InChI=1S/C5H11NO2/c1-4(7)5(8)6(2)3/h4,7H,1-3H3",1.630235126,CC(O)C(=O)N(C)C,0,G1,A,mono-constituent,None,Uncharged
A-4203,"InChI=1S/C2H4O3.H3N/c3-1-2(4)5;/h3H,1H2,(H,4,5);1H3",1.700915909,[NH4+].OCC([O-])=O,0,G1,A,mono-constituent,None,Zwitterion
A-4204,"InChI=1S/C22H14O4/c23-21(24)17-11-3-7-13-5-1-9-15(19(13)17)16-10-2-6-14-8-4-12-18(20(14)16)22(25)26/h1-12H,(H,23,24)(H,25,26)",-2.233440337,[O-]C(=O)C1=CC=CC2=CC=CC(C3=CC=CC4=CC=CC(C([O-])=O)=C34)=C12,0,G1,A,mono-constituent,Non Valid pH,Negative
A-4205,"InChI=1S/C7H12O2/c1-4-7(8)9-5-6(2)3/h4,6H,1,5H2,2-3H3",-1.806759777,CC(C)COC(=O)C=C,0.292697117,G5,A,mono-constituent,None,Uncharged
A-4206,"InChI=1S/C10H12O/c1-9(7-8-11)10-5-3-2-4-6-10/h2-6,8-9H,7H2,1H3",-1.86983286,CC(CC=O)C1=CC=CC=C1,0,G1,A,mono-constituent,None,Uncharged
A-4207,"InChI=1S/C7H9NO/c1-5-4-6(9)2-3-7(5)8/h2-4,9H,8H2,1H3",-1.789422053,CC1=CC(O)=CC=C1N,0.07745098,G3,A,mono-constituent,None,Uncharged
A-4211,"InChI=1S/C9H8O3/c1-12-9(11)8(10)7-5-3-2-4-6-7/h2-6H,1H3",-1.914237348,COC(=O)C(=O)C1=CC=CC=C1,1.497839313,G2,A,mono-constituent,Non Valid pH,Uncharged
A-4215,"InChI=1S/C22H17N5O7S2.2Na/c23-14-1-10-19-13(11-14)12-20(36(32,33)34)21(22(19)28)27-26-16-4-2-15(3-5-16)24-25-17-6-8-18(9-7-17)35(29,30)31;;/h1-12,28H,23H2,(H,29,30,31)(H,32,33,34);;/q;2*+1/p-2",-0.460354084,NC1=CC2=CC(=C(N=NC3=CC=C(C=C3)N=NC3=CC=C(C=C3)S([O-])(=O)=O)C(O)=C2C=C1)S([O-])(=O)=O,0,G1,A,None,None,Negative
A-4216,"InChI=1S/C8H11NO2.Cl/c1-11-8-4-6(5-9)2-3-7(8)10;/h2-4,10H,5,9H2,1H3;",0.018846252,COC1=CC(C[NH3+])=CC=C1O,0,G1,A,mono-constituent,None,Positive
A-4217,"InChI=1S/C19H14BrCl2N5O8S2.2Na/c1-8(20)18(28)23-10-3-4-15(36(30,31)32)13(5-10)24-25-17-9(2)26-27(19(17)29)14-6-12(22)16(7-11(14)21)37(33,34)35;;/h3-7,17H,1H2,2H3,(H,23,28)(H,30,31,32)(H,33,34,35);;/q;2*+1/p-2",-0.550169975,CC1=NN(C(=O)C1N=NC1=CC(NC(=O)C(Br)=C)=CC=C1S([O-])(=O)=O)C1=CC(Cl)=C(C=C1Cl)S([O-])(=O)=O,0,G1,A,mono-constituent,None,Negative
A-4218,"InChI=1S/C40H30Cl4N14O20S6.6Na/c41-25-28-32(78-30-20(50-28)6-8-22(34(30)84(74,75)76)46-10-12-48-38-54-36(44)56-40(58-38)52-18-4-2-16(80(62,63)64)14-24(18)82(68,69)70)26(42)27-31(25)77-29-19(49-27)5-7-21(33(29)83(71,72)73)45-9-11-47-37-53-35(43)55-39(57-37)51-17-3-1-15(79(59,60)61)13-23(17)81(65,66)67;;;;;;/h1-8,13-14,45-46H,9-12H2,(H,59,60,61)(H,62,63,64)(H,65,66,67)(H,68,69,70)(H,71,72,73)(H,74,75,76)(H2,47,51,53,55,57)(H2,48,52,54,56,58);;;;;;/q;6*+1/p-6",-0.879554019,[O-]S(=O)(=O)C1=CC=C(NC2=NC(NCCNC3=C(C4=C(C=C3)N=C3C(Cl)=C5OC6=C(C(NCCNC7=NC(NC8=CC=C(C=C8S([O-])(=O)=O)S([O-])(=O)=O)=NC(Cl)=N7)=CC=C6N=C5C(Cl)=C3O4)S([O-])(=O)=O)S([O-])(=O)=O)=NC(Cl)=N2)C(=C1)S([O-])(=O)=O,0,G1,A,mono-constituent,None,Negative
A-4221,"InChI=1S/C6H8O7.C3H9NO/c7-3(8)1-6(13,5(11)12)2-4(9)10;1-3(5)2-4/h13H,1-2H2,(H,7,8)(H,9,10)(H,11,12);3,5H,2,4H2,1H3",0.862920127,OC(CC([O-])=O)(CC([O-])=O)C([O-])=O,0,G1,A,UVCB,Cosolvent Buffer,Negative
A-4223,"InChI=1S/C7H8O2/c1-5-6(8)3-2-4-7(5)9/h2-4,8-9H,1H3",0.192772727,CC1=C(O)C=CC=C1O,0.066813637,G3,A,mono-constituent,None,Uncharged
A-4224,"InChI=1S/C5H10O/c1-4-5(2,3)6/h4,6H,1H2,2-3H3",0.351057238,CC(C)(O)C=C,0.356871381,G3,A,mono-constituent,None,Uncharged
A-4225,"InChI=1S/C6H10O4.2Li/c7-5(8)3-1-2-4-6(9)10;;/h1-4H2,(H,7,8)(H,9,10);;/q;2*+1/p-2",0.084622153,[O-]C(=O)CCCCC([O-])=O,0.320737711,G5,A,mono-constituent,None,Negative
A-4226,"InChI=1S/C10H18O4.2Li/c11-9(12)7-5-3-1-2-4-6-8-10(13)14;;/h1-8H2,(H,11,12)(H,13,14);;/q;2*+1/p-2",-0.047347893,[O-]C(=O)CCCCCCCCC([O-])=O,0.320737711,G5,A,mono-constituent,None,Negative
A-4227,"InChI=1S/C9H16O4.2Li/c10-8(11)6-4-2-1-3-5-7-9(12)13;;/h1-7H2,(H,10,11)(H,12,13);;/q;2*+1/p-2",-0.017921985,[O-]C(=O)CCCCCCCC([O-])=O,0.320737711,G5,A,mono-constituent,None,Negative
A-4228,"InChI=1S/C22H17N5O7S2.2C6H15NO3/c23-14-1-10-19-13(11-14)12-20(36(32,33)34)21(22(19)28)27-26-16-4-2-15(3-5-16)24-25-17-6-8-18(9-7-17)35(29,30)31;2*8-4-1-7(2-5-9)3-6-10/h1-12,26H,23H2,(H,29,30,31)(H,32,33,34);2*8-10H,1-6H2/b25-24?,27-21-;;",-0.635904616,NC1=CC2=CC(=C(N=NC3=CC=C(C=C3)N=NC3=CC=C(C=C3)S([O-])(=O)=O)C(O)=C2C=C1)S([O-])(=O)=O,0,G1,A,mono-constituent,Cosolvent Buffer,Negative
A-4232,"InChI=1S/C21H16Cl2N6O10S3.2Na/c22-19-25-20(23)27-21(26-19)24-13-3-6-15-11(9-13)10-16(41(33,34)35)17(18(15)30)29-28-12-1-4-14(5-2-12)40(31,32)8-7-39-42(36,37)38;;/h1-6,9-10,30H,7-8H2,(H,33,34,35)(H,36,37,38)(H,24,25,26,27);;/q;2*+1/p-2",-1.578382357,[O-]S(=O)(=O)OCCS(=O)(=O)C1=CC=C(NN=C2C(=O)C3=CC=C(NC4=NC(Cl)=NC(Cl)=N4)C=C3C=C2S([O-])(=O)=O)C=C1,0,G1,A,mono-constituent,None,Negative
A-4236,"InChI=1S/C34H46N12O5S.C3H6O3/c1-5-45(6-2)17-9-15-35-31-40-32(36-16-10-18-46(7-3)8-4)42-33(41-31)37-23-11-13-25-22(19-23)20-28(52(49,50)51)29(30(25)47)44-43-24-12-14-26-27(21-24)39-34(48)38-26;1-2(4)3(5)6/h11-14,19-21,47H,5-10,15-18H2,1-4H3,(H2,38,39,48)(H,49,50,51)(H3,35,36,37,40,41,42);2,4H,1H3,(H,5,6)",-0.64043406,CC[NH+](CC)CCCNC1=NC(NC2=CC3=CC(=C(N=NC4=CC=C5NC(=O)NC5=C4)C(O)=C3C=C2)S([O-])(=O)=O)=NC(NCCC[NH+](CC)CC)=[NH+]1,0,G1,A,None,Cosolvent Buffer,Zwitterion
A-4237,"InChI=1S/H2O4S.Sn/c1-5(2,3)4;/h(H2,1,2,3,4);/q;+2/p-2",-0.057823856,[O-]S([O-])(=O)=O,0,G1,A,mono-constituent,None,Negative
A-4238,"InChI=1S/C26H29Cl2N5O3/c1-32-6-8-33(9-7-32)5-4-10-36-25-13-21-18(11-24(25)35-3)26(17(15-29)16-30-21)31-22-14-23(34-2)20(28)12-19(22)27/h11-14,16H,4-10H2,1-3H3,(H,30,31)",-4.879551326,COC1=CC(NC2=C(C=NC3=CC(OCCCN4CC[NH+](C)CC4)=C(OC)C=C23)C#N)=C(Cl)C=C1Cl,0.183988393,G3,A,mono-constituent,None,Positive
A-4240,"InChI=1S/C2H5NO/c1-2-3-4/h2,4H,1H3/b3-2+",0.495819462,CC=NO,0,G1,A,mono-constituent,None,Uncharged
A-4241,InChI=1S/BrH.Li/h1H;/q;+1/p-1,1.32370627,[Br-],0,G1,A,mono-constituent,None,Negative
A-4242,"InChI=1S/C9H18O4/c1-4-9(13-8(2)10)12-7-5-6-11-3/h9H,4-7H2,1-3H3",-0.016848465,CCC(OCCCOC)OC(C)=O,0.012674232,G3,A,None,None,Uncharged
A-4244,"InChI=1S/2Na.H2O4S2/c;;1-5(2)6(3)4/h;;(H,1,2)(H,3,4)/q2*+1;/p-2",0.018292129,[O-]S(=O)S([O-])=O,0,G1,A,mono-constituent,None,Negative
A-4246,"InChI=1S/C4H6O/c1-2-3-4-5/h2-4H,1H3/b3-2-",0.412016319,CC=CC=O,0,G1,A,None,None,Uncharged
A-4248,"InChI=1S/C4H8O/c1-3-4(2)5-3/h3-4H,1-2H3",0.397295078,CC1OC1C,0,G1,A,mono-constituent,None,Uncharged
A-4249,"InChI=1S/C9H20O4S.Na/c1-2-3-4-5-6-7-8-9-13-14(10,11)12;/h2-9H2,1H3,(H,10,11,12);/q;+1/p-1",-0.13619896,CCCCCCCCCOS([O-])(=O)=O,0,G1,A,mono-constituent,None,Negative
A-4250,"InChI=1S/C27H29N2O3.ClH/c1-6-28-22-14-24-20(12-16(22)3)26(18-10-8-9-11-19(18)27(30)31-5)21-13-17(4)23(29-7-2)15-25(21)32-24;/h8-15,28-29H,6-7H2,1-5H3;1H/q+1;/p-1",-1.390984611,CCNC1=CC2=[O+]C3=CC(NCC)=C(C)C=C3C(C3=CC=CC=C3C(=O)OC)=C2C=C1C,0,G1,A,mono-constituent,Non Valid pH,Positive
A-4252,"InChI=1S/C8H11NO/c1-2-10-8-5-3-7(9)4-6-8/h3-6H,2,9H2,1H3",-0.860835326,CCOC1=CC=C(N)C=C1,0.012284096,G3,A,mono-constituent,None,Uncharged
A-4254,"InChI=1S/C9H6ClNO/c10-8-4-2-1-3-7(8)9(12)5-6-11/h1-4H,5H2",-2.175139595,ClC1=CC=CC=C1C(=O)CC#N,0,G1,A,mono-constituent,Non Valid pH,Uncharged
A-4257,"InChI=1S/C10H14O5/c1-7(2)10(13)15-5-4-14-9(12)6-8(3)11/h1,4-6H2,2-3H3",-1.063682205,CC(=O)CC(=O)OCCOC(=O)C(C)=C,0,G1,A,mono-constituent,None,Uncharged
A-4258,"InChI=1S/C8H6O2/c9-8-7-4-2-1-3-6(7)5-10-8/h1-4H,5H2",-0.862721053,O=C1OCC2=CC=CC=C12,0,G1,A,None,None,Uncharged
A-4259,"InChI=1S/C10H11N3O3S/c1-7-5-10(11)13(12-7)8-3-2-4-9(6-8)17(14,15)16/h2-4,6,11H,5H2,1H3,(H,14,15,16)",-1.138788219,CC1=NN(C(=[NH2+])C1)C1=CC=CC(=C1)S([O-])(=O)=O,0,G1,A,mono-constituent,None,Zwitterion
A-4260,"InChI=1S/C12H15NO/c14-12-6-8-13(9-7-12)10-11-4-2-1-3-5-11/h1-5H,6-10H2",-1.016982858,O=C1CCN(CC2=CC=CC=C2)CC1,0,G1,A,mono-constituent,Non Valid pH,Uncharged
A-4264,"InChI=1S/C5H9NO2/c1-4(6)3-5(7)8-2/h3H,6H2,1-2H3/b4-3+",-0.805923544,COC(=O)C=C(C)N,0,G1,A,mono-constituent,Unstable,Uncharged
A-4265,InChI=1S/FH.Mg.Na.O2Si.2H/c;;;1-3-2;;/h1H;;;;;,-0.856665127,O=[Si]=O,0,G1,A,None,None,Uncharged
A-4267,"InChI=1S/C10H16N2O2.H2O4S/c11-9-1-3-10(4-2-9)12(5-7-13)6-8-14;1-5(2,3)4/h1-4,13-14H,5-8,11H2;(H2,1,2,3,4)",-0.218413053,NC1=CC=C(C=C1)N(CCO)CCO,0,G1,A,mono-constituent,Cosolvent Buffer,Uncharged
A-4268,"InChI=1S/3CH2O3.2H3N.2Zn/c3*2-1(3)4;;;;/h3*(H2,2,3,4);2*1H3;;/q;;;;;2*+2/p-4",-0.289761762,[Zn++],0.046001339,G3,A,None,None,Uncharged
A-4269,InChI=1S/2Na.H2S/h;;1H2/q2*+1;/p-1,0.352490659,[SH-],0,G1,A,None,None,Negative
A-4270,"InChI=1S/2C2H4O2.Ni/c2*1-2(3)4;/h2*1H3,(H,3,4);/q;;+2/p-2",0.00053768,CC([O-])=O,0,G1,A,mono-constituent,None,Negative
A-4271,"InChI=1S/C3H2F6O/c4-2(5,6)1(10)3(7,8)9/h1,10H",0.020110333,OC(C(F)(F)F)C(F)(F)F,0,G1,A,mono-constituent,None,Uncharged
A-4274,"InChI=1S/C24H24N6O18S3.3Na/c31-13-1-4-22(49(40,41)42,7-10(13)16(34)35)28-19-25-20(29-23(50(43,44)45)5-2-14(32)11(8-23)17(36)37)27-21(26-19)30-24(51(46,47)48)6-3-15(33)12(9-24)18(38)39;;;/h1-3,7-9,31-33H,4-6H2,(H,34,35)(H,36,37)(H,38,39)(H,40,41,42)(H,43,44,45)(H,46,47,48)(H3,25,26,27,28,29,30);;;/q;3*+1/p-3",-0.689646011,[O-]C(=O)C1=CC(CCC1=O)([N-]C1=NC([N-]C2(CCC(=O)C(=C2)C([O-])=O)S([O-])(=O)=O)=[NH+]C([N-]C2(CCC(=O)C(=C2)C([O-])=O)S([O-])(=O)=O)=[NH+]1)S([O-])(=O)=O,0,G1,A,None,Wrong Ionization,Zwitterion
A-4276,"InChI=1S/2CH2O2.Ca/c2*2-1-3;/h2*1H,(H,2,3);/q;;+2/p-2",0.121211094,[O-]C=O,0,G1,A,mono-constituent,None,Negative
A-4277,"InChI=1S/C6H10O4/c1-5(7)9-3-4-10-6(2)8/h3-4H2,1-2H3",0.068474963,CC(=O)OCCOC(C)=O,0.01454904,G5,A,mono-constituent,None,Uncharged
A-4278,"InChI=1S/C22H18N2O11S3.2Na/c23-20-17(37(29,30)31)11-16(18-19(20)22(26)15-4-2-1-3-14(15)21(18)25)24-12-5-7-13(8-6-12)36(27,28)10-9-35-38(32,33)34;;/h1-8,11,24H,9-10,23H2,(H,29,30,31)(H,32,33,34);;/q;2*+1/p-2",-0.563962397,NC1=C2C(=O)C3=CC=CC=C3C(=O)C2=C(NC2=CC=C(C=C2)S(=O)(=O)CCOS([O-])(=O)=O)C=C1S([O-])(=O)=O,0.010371746,G5,A,mono-constituent,None,Negative
A-4281,InChI=1S/2As.3O/q2*+3;3*-2,-1.045896296,O.O.O.[As+3].[As+3],0,G1,A,None,None,Uncharged
A-4282,"InChI=1S/C28H22O6S2.2Na/c29-35(30,31)27-7-3-1-5-25(27)19-13-21-9-15-23(16-10-21)24-17-11-22(12-18-24)14-20-26-6-2-4-8-28(26)36(32,33)34;;/h1-20H,(H,29,30,31)(H,32,33,34);;/q;2*+1/p-2/b19-13-,20-14-;;",-1.504668533,[O-]S(=O)(=O)C1=CC=CC=C1C=CC1=CC=C(C=C1)C1=CC=C(C=CC2=CC=CC=C2S([O-])(=O)=O)C=C1,0,G1,A,None,None,Negative
A-4283,"InChI=1S/C3Cl6O/c4-2(5,6)1(10)3(7,8)9",-1.17979792,ClC(Cl)(Cl)C(=O)C(Cl)(Cl)Cl,0,G1,A,mono-constituent,None,Uncharged
A-4285,"InChI=1S/C8H19O4P/c1-3-5-7-11-13(9,10)12-8-6-4-2/h3-8H2,1-2H3,(H,9,10)",-1.087251192,CCCCOP([O-])(=O)OCCCC,0.009935162,G3,A,mono-constituent,None,Negative
A-4286,"InChI=1S/C3H6O/c1-3-4-2/h3H,1H2,2H3",-0.531030497,COC=C,0.028452426,G3,A,mono-constituent,None,Uncharged
A-4287,"InChI=1S/C8H14O3/c1-4-10-5-6-11-8(9)7(2)3/h2,4-6H2,1,3H3",-0.96747386,CCOCCOC(=O)C(C)=C,0,G1,A,mono-constituent,Non Valid pH,Uncharged
A-4291,"InChI=1S/C6H9ClO3/c1-3-10-6(9)5(7)4(2)8/h5H,3H2,1-2H3",-0.985949247,CCOC(=O)C(Cl)C(C)=O,0.036711671,G5,A,mono-constituent,Non Valid pH,Uncharged
A-4293,"InChI=1S/C27H24Cl2N14O12S3.3Na/c1-3-43-20(45)17(19(30)44)9(2)18(21(43)46)42-41-13-7-12(15(57(50,51)52)8-16(13)58(53,54)55)34-27-38-23(29)37-25(40-27)32-10-4-5-14(56(47,48)49)11(6-10)33-26-36-22(28)35-24(31)39-26;;;/h4-8,41H,3H2,1-2H3,(H2,30,44)(H,47,48,49)(H,50,51,52)(H,53,54,55)(H3,31,33,35,36,39)(H2,32,34,37,38,40);;;/q;3*+1/p-3/b42-18-;;;",-0.759001213,CCN1C([O-])=C(C(N)=O)C(C)=C(N=NC2=CC(NC3=NC(Cl)=NC(NC4=CC=C(C(NC5=NC(N)=NC(Cl)=N5)=C4)S([O-])(=O)=O)=N3)=C(C=C2S([O-])(=O)=O)S([O-])(=O)=O)C1=O,0,G1,A,None,None,Negative
A-4296,"InChI=1S/C7H17NO/c1-4-8(5-2)6-7(3)9/h7,9H,4-6H2,1-3H3",0.102111364,CC[NH+](CC)CC(C)O,0,G1,A,mono-constituent,Non Valid pH,Positive
A-4301,"InChI=1S/C2H5NS/c1-2(3)4/h1H3,(H2,3,4)",0.336339534,CC(N)=S,0,G1,A,mono-constituent,None,Uncharged
A-4303,"InChI=1S/C6H12O3/c1-5(4-8-3)9-6(2)7/h5H,4H2,1-3H3",0.083023239,COCC(C)OC(C)=O,0.123935385,G5,A,mono-constituent,None,Uncharged
A-4304,"InChI=1S/C26H24N4O9S3.H3N.Na/c1-13-5-10-18-23(24(13)42(36,37)38)40-26(28-18)16-6-8-17(9-7-16)29-30-22(15(3)31)25(32)27-19-11-14(2)21(41(33,34)35)12-20(19)39-4;;/h5-12,22H,1-4H3,(H,27,32)(H,33,34,35)(H,36,37,38);1H3;/q;;+1/p-1",-0.623062478,COC1=CC(=C(C)C=C1NC(=O)C(=N[N-]C1=CC=C(C=C1)C1=NC2=CC=C(C)C(=C2S1)S([O-])(=O)=O)C(C)=O)S([O-])(=O)=O,0,G1,A,mono-constituent,None,Negative
A-4305,"InChI=1S/C17H36O6/c1-3-5-7-18-9-11-20-13-15-22-17-23-16-14-21-12-10-19-8-6-4-2/h3-17H2,1-2H3",-1.301635776,CCCCOCCOCCOCOCCOCCOCCCC,0,G1,A,mono-constituent,None,Uncharged
A-4306,"InChI=1S/C6H8O4/c1-3-5(7)10-4(2)6(8)9-3/h3-4H,1-2H3",-0.936025863,CC1OC(=O)C(C)OC1=O,0,G1,A,mono-constituent,None,Uncharged
A-4307,InChI=1S/CH2BrCl/c2-1-3/h1H2,-0.889164102,ClCBr,1.5,G2,A,mono-constituent,None,Uncharged
A-4308,"InChI=1S/C7H8N2O/c8-6-4-2-1-3-5(6)7(9)10/h1-4H,8H2,(H2,9,10)",-0.913922317,NC(=O)C1=CC=CC=C1N,0,G1,A,mono-constituent,Non Valid pH,Uncharged
A-4312,"InChI=1S/C6H12O/c1-2-3-4-5-6-7/h3-4,7H,2,5-6H2,1H3/b4-3-",-0.785854804,CCC=CCCO,0.03535673,G3,A,mono-constituent,Non Valid pH,Uncharged
A-4316,"InChI=1S/C6H10O2/c1-7-6-4-2-3-5-8-6/h3,5-6H,2,4H2,1H3",-0.853333105,COC1CCC=CO1,0,G1,A,mono-constituent,None,Uncharged
A-4318,"InChI=1S/C8H11NO3.ClH/c1-5-8(12)7(4-11)6(3-10)2-9-5;/h2,10-12H,3-4H2,1H3;1H",-0.111712583,CC1=NC=C(CO)C(CO)=C1O,0.070506291,G3,A,None,None,Uncharged
A-4321,"InChI=1S/2CH2O3.4Na.3H2O2/c2*2-1(3)4;;;;;3*1-2/h2*(H2,2,3,4);;;;;3*1-2H/q;;4*+1;;;/p-4",-0.309433822,OC([O-])=O,0.030273456,G5,A,None,None,Negative
A-4322,"InChI=1S/C19H32O3/c1-2-3-4-5-6-7-8-9-18-10-12-19(13-11-18)22-17-16-21-15-14-20/h10-13,20H,2-9,14-17H2,1H3",-0.304510239,CCCCCCCCCC1=CC=C(OCCOCCO)C=C1,0,G1,A,mono-constituent,Non Valid pH,Uncharged