ID,InChI,Solubility,SMILEScurated,SD,Group,Dataset,Composition,Error,Charge
B-1818,"InChI=1S/C8H16/c1-7-5-3-4-6-8(7)2/h7-8H,3-6H2,1-2H3/t7-,8+",-4.2719,CC1CCCCC1C,0.49995,G3,B,None,None,Uncharged
B-1820,"InChI=1S/C4H8Cl2/c1-3(5)4(2)6/h3-4H,1-2H3/t3-,4-/m1/s1",-2.3541,CC(Cl)C(C)Cl,0,G1,B,None,None,Uncharged
B-1821,"InChI=1S/C11H7NO4/c13-11(14)8-5-1-3-7-4-2-6-9(10(7)8)12(15)16/h1-6H,(H,13,14)",-2.7501,[O-]C(=O)C1=CC=CC2=CC=CC(=C12)[N+]([O-])=O,0,G1,B,None,None,Negative
B-1822,"InChI=1S/C9H20/c1-4-6-8-9(3)7-5-2/h9H,4-8H2,1-3H3",-6.0474,CCCCC(C)CCC,0,G1,B,None,None,Uncharged
B-1824,"InChI=1S/C11H10O/c1-12-11-8-4-6-9-5-2-3-7-10(9)11/h2-8H,1H3",-4.1992,COC1=CC=CC2=CC=CC=C12,0,G1,B,None,None,Uncharged
B-1825,"InChI=1S/C10H18O/c1-9(2)7-4-5-10(3,6-7)8(9)11/h7-8,11H,4-6H2,1-3H3/t7-,8-,10+/m1/s1",-2.2702,CC1(C)C2CCC(C)(C2)C1O,0,G1,B,None,None,Uncharged
B-1826,"InChI=1S/C9H20O4S2/c1-5-9(6-2,14(10,11)7-3)15(12,13)8-4/h5-8H2,1-4H3",-2.0625,CCC(CC)(S(=O)(=O)CC)S(=O)(=O)CC,0,G1,B,None,None,Uncharged
B-1827,InChI=1S/C12H6Cl4S/c13-7-1-3-8(4-2-7)17-12-6-10(15)9(14)5-11(12)16/h1-6H,-7.0335,ClC1=CC=C(SC2=CC(Cl)=C(Cl)C=C2Cl)C=C1,0,G1,B,None,None,Uncharged
B-1828,"InChI=1S/C10Cl10/c11-1-2(12)6(16)9(19,5(1)15)10(20)7(17)3(13)4(14)8(10)18",-7.2784,ClC1=C(Cl)C(Cl)(C(Cl)=C1Cl)C1(Cl)C(Cl)=C(Cl)C(Cl)=C1Cl,0,G1,B,None,None,Uncharged
B-1829,"InChI=1S/C6H9NO/c8-7-6-4-2-1-3-5-6/h2,4,8H,1,3,5H2/b7-6+",-0.9667,ON=C1CCCC=C1,0,G1,B,None,None,Uncharged
B-1830,InChI=1S/C10Cl8/c11-3-1-2(5(13)9(17)7(3)15)6(14)10(18)8(16)4(1)12,-9.703,ClC1=C(Cl)C2=C(Cl)C(Cl)=C(Cl)C(Cl)=C2C(Cl)=C1Cl,0,G1,B,None,None,Uncharged
B-1831,"InChI=1S/C7H6N2/c8-5-6-2-1-3-7(9)4-6/h1-4H,9H2",-1.1693,NC1=CC=CC(=C1)C#N,0,G1,B,None,None,Uncharged
B-1832,"InChI=1S/C9H17N/c1-2-3-4-5-6-7-8-9-10/h2-8H2,1H3",-3.2987,CCCCCCCCC#N,0,G1,B,None,None,Uncharged
B-1834,"InChI=1S/C9H9NS/c11-8-10-7-6-9-4-2-1-3-5-9/h1-5H,6-7H2",-3.1714,S=C=NCCC1=CC=CC=C1,0,G1,B,None,None,Uncharged
B-1835,"InChI=1S/C3HCl3O2/c4-1(2(5)6)3(7)8/h(H,7,8)/p-1",-0.4659,[O-]C(=O)C(Cl)=C(Cl)Cl,0,G1,B,None,None,Negative
B-1836,"InChI=1S/C6H3F3N4/c7-6(8,9)5-12-3-1-10-2-11-4(3)13-5/h1-2H,(H,10,11,12,13)",-0.4505,FC(F)(F)C1=NC2=NC=NC=C2N1,0,G1,B,None,None,Uncharged
B-1837,"InChI=1S/C11H14O2/c12-11(13)9-5-4-8-10-6-2-1-3-7-10/h1-3,6-7H,4-5,8-9H2,(H,12,13)",-2.4657,[O-]C(=O)CCCCC1=CC=CC=C1,0.23285,G3,B,None,None,Negative
B-1838,"InChI=1S/C6H4Cl2N4/c1-12-2-9-5-3(12)4(7)10-6(8)11-5/h2H,1H3",-1.1522,CN1C=NC2=NC(Cl)=NC(Cl)=C12,0,G1,B,None,None,Uncharged
B-1839,"InChI=1S/C10H10Cl3O4P/c1-15-18(14,16-2)17-10(6-11)8-4-3-7(12)5-9(8)13/h3-6H,1-2H3/b10-6-",-3.4066,COP(=O)(OC)OC(=CCl)C1=CC=C(Cl)C=C1Cl,0,G1,B,None,None,Uncharged
B-1840,"InChI=1S/C9H20NO3PS2/c1-5-12-14(15,13-6-2)16-7-9(11)10-8(3)4/h8H,5-7H2,1-4H3,(H,10,11)",-2.0575,CCOP(=S)(OCC)SCC(=O)NC(C)C,0,G1,B,None,None,Uncharged
B-1841,"InChI=1S/C8H18NO4PS2/c1-9-8(10)4-5-15-6-7-16-14(11,12-2)13-3/h4-7H2,1-3H3,(H,9,10)",0.5416,CNC(=O)CCSCCSP(=O)(OC)OC,0,G1,B,None,None,Uncharged
B-1842,"InChI=1S/C11H8O3/c12-9-6-5-7-3-1-2-4-8(7)10(9)11(13)14/h1-6,12H,(H,13,14)",-3.1284,OC1=C(C([O-])=O)C2=CC=CC=C2C=C1,0,G1,B,None,None,Negative
B-1843,"InChI=1S/C10H17Cl2NOS/c1-7(2)13(8(3)4)10(14)15-6-9(12)5-11/h5,7-8H,6H2,1-4H3/b9-5-",-4.2856,CC(C)N(C(C)C)C(=O)SCC(Cl)=CCl,0,G1,B,None,None,Uncharged
B-1844,"InChI=1S/C10H16Cl3NOS/c1-6(2)14(7(3)4)10(15)16-5-8(11)9(12)13/h6-7H,5H2,1-4H3",-4.8818,CC(C)N(C(C)C)C(=O)SCC(Cl)=C(Cl)Cl,0,G1,B,None,None,Uncharged
B-1845,"InChI=1S/C8H12O4/c9-7(10)5-3-1-2-4-6(5)8(11)12/h5-6H,1-4H2,(H,9,10)(H,11,12)",-1.935,[O-]C(=O)C1CCCCC1C([O-])=O,0,G1,B,None,None,Negative
B-1846,"InChI=1S/C5H4N4O/c10-5-6-1-3-4(9-5)8-2-7-3/h1-2H,(H2,6,7,8,9,10)",-1.7136,O=C1NC=C2[N-]C=NC2=N1,0,G1,B,None,None,Negative
B-1847,InChI=1S/C9H12N4O3/c1-10-5-6(11(2)8(10)15)12(3)9(16)13(4)7(5)14/h1-4H3,-0.9527,CN1C(=O)N(C)C2=C1N(C)C(=O)N(C)C2=O,0,G1,B,None,None,Uncharged
B-1848,"InChI=1S/C12H15ClNO4PS2/c1-3-16-19(20,17-4-2)21-8-14-10-6-5-9(13)7-11(10)18-12(14)15/h5-7H,3-4,8H2,1-2H3",-5.0813,CCOP(=S)(OCC)SCN1C(=O)OC2=CC(Cl)=CC=C12,0.07585,G3,B,None,None,Uncharged
B-1849,"InChI=1S/C18H18O3/c1-2-3-12-21-17(19)18(20)15-10-6-4-8-13(15)14-9-5-7-11-16(14)18/h4-11,20H,2-3,12H2,1H3",-3.8885,CCCCOC(=O)C1(O)C2=CC=CC=C2C2=CC=CC=C12,0,G1,B,None,None,Uncharged
B-1850,"InChI=1S/C6H12ClNO/c1-3-8(4-2)6(9)5-7/h3-5H2,1-2H3",-0.243,CCN(CC)C(=O)CCl,0,G1,B,None,None,Uncharged
B-1851,"InChI=1S/C10H12O2/c1-2-8-12-10(11)9-6-4-3-5-7-9/h3-7H,2,8H2,1H3",-2.6701,CCCOC(=O)C1=CC=CC=C1,0,G1,B,None,None,Uncharged
B-1852,"InChI=1S/C7H7BrO2/c8-6-1-2-7(10)5(3-6)4-9/h1-3,9-10H,4H2",-0.2072,OCC1=CC(Br)=CC=C1O,0,G1,B,None,None,Uncharged
B-1853,"InChI=1S/C7H12O4/c1-4(2)5(7(10)11)3-6(8)9/h4-5H,3H2,1-2H3,(H,8,9)(H,10,11)",-0.4073,CC(C)C(CC([O-])=O)C([O-])=O,0,G1,B,None,None,Negative
B-1854,"InChI=1S/C13H17NO3/c1-3-17-13(16)12(14-10(2)15)9-11-7-5-4-6-8-11/h4-8,12H,3,9H2,1-2H3,(H,14,15)/t12-/m0/s1",-1.7557,CCOC(=O)C(CC1=CC=CC=C1)NC(C)=O,0,G1,B,None,None,Uncharged
B-1855,InChI=1S/C6H2F4/c7-3-1-4(8)6(10)5(9)2-3/h1-2H,-2.3057,FC1=CC(F)=C(F)C(F)=C1,0,G1,B,None,None,Uncharged
B-1856,"InChI=1S/C7H16O/c1-4-5-7(2,3)6-8/h8H,4-6H2,1-3H3",-1.4391,CCCC(C)(C)CO,0.509975339,G4,B,None,None,Uncharged
B-1857,"InChI=1S/C10H8O4/c11-10(12)4-2-7-1-3-8-9(5-7)14-6-13-8/h1-5H,6H2,(H,11,12)/b4-2-",-3.8523,[O-]C(=O)C=CC1=CC=C2OCOC2=C1,0,G1,B,None,None,Negative
B-1859,"InChI=1S/C19H14/c1-13-6-7-15-11-16-9-8-14-4-2-3-5-18(14)19(16)12-17(15)10-13/h2-12H,1H3",-6.644,CC1=CC2=CC3=C(C=CC4=C3C=CC=C4)C=C2C=C1,0,G1,B,None,None,Uncharged
B-1860,"InChI=1S/C19H14/c1-13-6-7-15-12-19-16(11-17(15)10-13)9-8-14-4-2-3-5-18(14)19/h2-12H,1H3",-6.8162,CC1=CC2=CC3=C(C=C2C=C1)C1=C(C=CC=C1)C=C3,0,G1,B,None,None,Uncharged
B-1861,"InChI=1S/C21H14/c1-13-16-7-2-3-8-18(16)19-12-10-15-6-4-5-14-9-11-17(13)21(19)20(14)15/h2-12H,1H3",-8.5234,CC1=C2C=CC3=CC=CC4=CC=C(C5=C1C=CC=C5)C2=C34,0,G1,B,None,None,Uncharged
B-1862,"InChI=1S/C7H5NOS/c10-7-8-5-3-1-2-4-6(5)9-7/h1-4H,(H,8,10)",-2.1795,S=C1[N-]C2=CC=CC=C2O1,0,G1,B,None,None,Negative
B-1863,"InChI=1S/C10Cl12/c11-1-2(12)7(17)4(14)3(13,5(1,15)9(7,19)20)6(1,16)10(21,22)8(2,4)18",-6.8074,ClC12C3(Cl)C4(Cl)C5(Cl)C(Cl)(C1(Cl)C4(Cl)Cl)C2(Cl)C(Cl)(Cl)C35Cl,0,G1,B,None,None,Uncharged
B-1864,InChI=1S/C7H4ClNS/c8-6-2-1-3-7(4-6)9-5-10/h1-4H,-3.9507,ClC1=CC=CC(=C1)N=C=S,0,G1,B,None,None,Uncharged
B-1865,"InChI=1S/C9H12/c1-3-5-7-9-8-6-4-2/h1-2H,5-9H2",-2.983,C#CCCCCCC#C,0,G1,B,None,None,Uncharged
B-1866,"InChI=1S/C6H5NO3/c8-6(9)5-2-1-3-7(10)4-5/h1-4H,(H,8,9)",-1.2983,,0,G1,B,None,None,Uncharged
B-1867,"InChI=1S/C10H23O3P/c1-4-7-9-12-14(11,6-3)13-10-8-5-2/h4-10H2,1-3H3",-1.5687,CCCCOP(=O)(CC)OCCCC,0,G1,B,None,None,Uncharged
B-1868,"InChI=1S/C9H21O3P/c1-4-6-8-11-13(3,10)12-9-7-5-2/h4-9H2,1-3H3",-1.4155,CCCCOP(C)(=O)OCCCC,0,G1,B,None,None,Uncharged
B-1869,"InChI=1S/C12H10O2/c13-11-8-4-5-9-12(11)14-10-6-2-1-3-7-10/h1-9,13H",-3.2286,OC1=CC=CC=C1OC1=CC=CC=C1,0,G1,B,None,None,Uncharged
B-1870,"InChI=1S/C12H27NO3/c1-4-10(14)7-13(8-11(15)5-2)9-12(16)6-3/h10-12,14-16H,4-9H2,1-3H3",-0.5229,CCC(O)C[NH+](CC(O)CC)CC(O)CC,0,G1,B,None,None,Positive
B-1871,"InChI=1S/C19H14/c1-13-17-8-4-3-7-15(17)12-16-11-10-14-6-2-5-9-18(14)19(13)16/h2-12H,1H3",-6.5648,CC1=C2C=CC=CC2=CC2=C1C1=C(C=CC=C1)C=C2,0,G1,B,None,None,Uncharged
B-1872,"InChI=1S/C10H9Cl4NO2S/c11-9(12)10(13,14)18-15-7(16)5-3-1-2-4-6(5)8(15)17/h1-2,5-6,9H,3-4H2",-5.3968,ClC(Cl)C(Cl)(Cl)SN1C(=O)C2CC=CCC2C1=O,0,G1,B,None,None,Uncharged
B-1873,"InChI=1S/C7H14O2/c1-2-3-4-8-5-7-6-9-7/h7H,2-6H2,1H3",-0.8135,CCCCOCC1CO1,0,G1,B,None,None,Uncharged
B-1874,"InChI=1S/C7H6Cl2O/c1-4-2-5(8)7(10)6(9)3-4/h2-3,10H,1H3",-1.4202,CC1=CC(Cl)=C([O-])C(Cl)=C1,0,G1,B,None,None,Negative
B-1875,"InChI=1S/C7H6N4/c1-5-10-4-6-7(11-5)9-3-2-8-6/h2-4H,1H3",-0.1191,CC1=NC2=NC=CN=C2C=N1,0.172683918,G5,B,None,None,Uncharged
B-1876,"InChI=1S/C7H6N4/c1-5-6-7(11-4-10-5)9-3-2-8-6/h2-4H,1H3",-0.4658,CC1=NC=NC2=NC=CN=C12,0.169004694,G5,B,None,None,Uncharged
B-1878,"InChI=1S/C10H6N2OS2/c1-5-2-3-6-7(4-5)12-9-8(11-6)14-10(13)15-9/h2-4H,1H3",-5.3698,CC1=CC2=NC3=C(SC(=O)S3)N=C2C=C1,0,G1,B,None,None,Uncharged
B-1879,"InChI=1S/C13H29N3.C2H4O2/c1-2-3-4-5-6-7-8-9-10-11-12-16-13(14)15;1-2(3)4/h2-12H2,1H3,(H4,14,15,16);1H3,(H,3,4)",-2.6592,CCCCCCCCCCCCNC(N)=[NH2+],0,G1,B,None,Cosolvent Buffer,Positive
B-1880,"InChI=1S/C8H9NO2/c1-11-7-5-3-2-4-6(7)8(9)10/h2-5H,1H3,(H2,9,10)",-1.7815,COC1=CC=CC=C1C(N)=O,0,G1,B,None,None,Uncharged
B-1881,"InChI=1S/C4H11NO8P2/c6-4(7)1-5(2-14(8,9)10)3-15(11,12)13/h1-3H2,(H,6,7)(H2,8,9,10)(H2,11,12,13)",-0.0256,[O-]C(=O)C[NH+](CP([O-])([O-])=O)CP([O-])([O-])=O,0.0728,G3,B,None,None,Zwitterion
B-1882,"InChI=1S/C14H13NO/c15-13-8-6-11(7-9-13)10-14(16)12-4-2-1-3-5-12/h1-9H,10,15H2",-1.805,NC1=CC=C(CC(=O)C2=CC=CC=C2)C=C1,0,G1,B,None,None,Uncharged
B-1883,InChI=1S/C12H8Cl2O/c13-9-1-5-11(6-2-9)15-12-7-3-10(14)4-8-12/h1-8H,-4.7999,ClC1=CC=C(OC2=CC=C(Cl)C=C2)C=C1,0,G1,B,None,None,Uncharged
B-1884,"InChI=1S/C10H20O2.H2O/c1-9(2,11)8-4-6-10(3,12)7-5-8;/h8,11-12H,4-7H2,1-3H3;1H2",-1.6774,CC(C)(O)C1CCC(C)(O)CC1,0,G1,B,None,None,Uncharged
B-1886,"InChI=1S/C14H12N4O2/c15-5-1-2-6(16)10-9(5)13(19)11-7(17)3-4-8(18)12(11)14(10)20/h1-4H,15-18H2",-6.9515,NC1=CC=C(N)C2=C1C(=O)C1=C(N)C=CC(N)=C1C2=O,0,G1,B,None,None,Uncharged
B-1887,"InChI=1S/C13H16N2O6/c1-7-9(14(17)18)6-10(15(19)20)12(21-8(2)16)11(7)13(3,4)5/h6H,1-5H3",-4.4717,CC(=O)OC1=C(C=C(C(C)=C1C(C)(C)C)[N+]([O-])=O)[N+]([O-])=O,0,G1,B,None,None,PureChargeSeparation
B-1888,"InChI=1S/C3H5NO3/c5-2-4-1-3(6)7/h2H,1H2,(H,4,5)(H,6,7)",0.2672,[O-]C(=O)CNC=O,0,G1,B,None,None,Negative
B-1889,"InChI=1S/C14H12O2/c15-13-8-6-12(7-9-13)14(16)10-11-4-2-1-3-5-11/h1-9,15H,10H2",-1.5008,OC1=CC=C(C=C1)C(=O)CC1=CC=CC=C1,0,G1,B,None,None,Uncharged
B-1890,"InChI=1S/C8H19O4PS3/c1-4-11-13(14,12-5-2)15-7-8-16(9,10)6-3/h4-8H2,1-3H3",-2.5403,CCOP(=S)(OCC)SCCS(=O)(=O)CC,0,G1,B,None,None,Uncharged
B-1891,"InChI=1S/C19H13F/c1-12-14-7-3-2-6-13(14)10-18-15-8-4-5-9-16(15)19(20)11-17(12)18/h2-11H,1H3",-7.31,CC1=C2C=CC=CC2=CC2=C1C=C(F)C1=C2C=CC=C1,0,G1,B,None,None,Uncharged
B-1892,"InChI=1S/C19H14/c1-13-5-4-8-14-9-10-17-11-15-6-2-3-7-16(15)12-18(17)19(13)14/h2-12H,1H3",-6.644,CC1=CC=CC2=C1C1=C(C=C2)C=C2C=CC=CC2=C1,0,G1,B,None,None,Uncharged
B-1893,"InChI=1S/C7H4ClNO4/c8-4-1-2-6(9(12)13)5(3-4)7(10)11/h1-3H,(H,10,11)",-1.319,[O-]C(=O)C1=CC(Cl)=CC=C1[N+]([O-])=O,0,G1,B,None,None,Negative
B-1894,"InChI=1S/C14H23O4P/c1-3-5-12-16-19(15,17-13-6-4-2)18-14-10-8-7-9-11-14/h7-11H,3-6,12-13H2,1-2H3",-3.4746,CCCCOP(=O)(OCCCC)OC1=CC=CC=C1,0,G1,B,None,None,Uncharged
B-1895,"InChI=1S/C15H11ClO3/c1-19-14(17)15(18)12-5-3-2-4-10(12)11-7-6-9(16)8-13(11)15/h2-8,18H,1H3",-4.1836,COC(=O)C1(O)C2=CC=CC=C2C2=CC=C(Cl)C=C12,0,G1,B,None,None,Uncharged
B-1897,"InChI=1S/C6H12NO4PS2/c1-7(5-8)6(9)4-14-12(13,10-2)11-3/h5H,4H2,1-3H3",-1.9954,COP(=S)(OC)SCC(=O)N(C)C=O,0,G1,B,None,None,Uncharged
B-1898,"InChI=1S/C19H13F/c1-12-15-8-4-2-6-13(15)10-17-16-9-5-3-7-14(16)11-18(20)19(12)17/h2-11H,1H3",-7.31,CC1=C2C=CC=CC2=CC2=C1C(F)=CC1=C2C=CC=C1,0,G1,B,None,None,Uncharged
B-1899,"InChI=1S/C19H14/c1-13-16-8-4-3-7-15(16)12-19-17(13)11-10-14-6-2-5-9-18(14)19/h2-12H,1H3",-7.343,CC1=C2C=CC=CC2=CC2=C1C=CC1=C2C=CC=C1,0.3515,G3,B,None,None,Uncharged
B-1900,"InChI=1S/C9H16O3/c10-8-6-4-2-1-3-5-7-9(11)12/h8H,1-7H2,(H,11,12)",-0.9574,[O-]C(=O)CCCCCCCC=O,0,G1,B,None,None,Negative
B-1901,"InChI=1S/C8H7Cl2NO/c9-7(10)8(12)11-6-4-2-1-3-5-6/h1-5,7H,(H,11,12)",-3.3555,ClC(Cl)C(=O)NC1=CC=CC=C1,0,G1,B,None,None,Uncharged
B-1902,"InChI=1S/C5H10O2/c1-2-5-6-3-4-7-5/h5H,2-4H2,1H3",0.2919,CCC1OCCO1,0,G1,B,None,None,Uncharged
B-1903,"InChI=1S/C2H6N4O2/c3-1(5-7)2(4)6-8/h5,7H,3-4H2/b2-1-",-0.7773,NC(=NO)C(N)=NO,0,G1,B,None,None,Uncharged
B-1904,"InChI=1S/C7H7NO3/c1-5-4-6(9)2-3-7(5)8(10)11/h2-4,9H,1H3",-2.1103,CC1=CC(O)=CC=C1[N+]([O-])=O,0,G1,B,None,None,PureChargeSeparation
B-1905,"InChI=1S/C18H14N4O2/c23-22(24)18-12-10-17(11-13-18)21-20-16-8-6-15(7-9-16)19-14-4-2-1-3-5-14/h1-13,19H",-7.5229,[O-][N+](=O)C1=CC=C(C=C1)N=NC1=CC=C(NC2=CC=CC=C2)C=C1,0,G1,B,None,None,PureChargeSeparation
B-1906,"InChI=1S/C8H8N4S/c9-7(10)12-8-11-5-3-1-2-4-6(5)13-8/h1-4H,(H4,9,10,11,12)",-2.4412,NC(=[NH2+])NC1=NC2=CC=CC=C2S1,0,G1,B,None,None,Positive
B-1907,"InChI=1S/C6H8O4/c7-5(8)3-1-2-4-6(9)10/h1,3H,2,4H2,(H,7,8)(H,9,10)",-1.2045,[O-]C(=O)CCC=CC([O-])=O,0,G1,B,None,None,Negative
B-1908,"InChI=1S/C7H17O3PS3/c1-4-9-11(12,10-5-2)13-7-14(8)6-3/h4-7H2,1-3H3",-1.5384,CCOP(=S)(OCC)SCS(=O)CC,0,G1,B,None,None,Uncharged
B-1909,"InChI=1S/C7H17O4PS3/c1-4-10-12(13,11-5-2)14-7-15(8,9)6-3/h4-7H2,1-3H3",-2.5309,CCOP(=S)(OCC)SCS(=O)(=O)CC,0,G1,B,None,None,Uncharged
B-1910,"InChI=1S/C5H5Cl3N2OS/c1-2-11-4-9-3(10-12-4)5(6,7)8/h2H2,1H3",-3.3254,CCOC1=NC(=NS1)C(Cl)(Cl)Cl,0,G1,B,None,None,Uncharged
B-1911,"InChI=1S/C10H20NO5PS2/c1-5-14-10(13)11(4)9(12)8-19-17(18,15-6-2)16-7-3/h5-8H2,1-4H3",-2.5177,CCOC(=O)N(C)C(=O)CSP(=S)(OCC)OCC,0,G1,B,None,None,Uncharged
B-1912,"InChI=1S/C12H17O4PS2/c1-4-16-12(13)11(10-8-6-5-7-9-10)19-17(18,14-2)15-3/h5-9,11H,4H2,1-3H3",-4.4643,CCOC(=O)C(SP(=S)(OC)OC)C1=CC=CC=C1,0,G1,B,None,None,Uncharged
B-1913,InChI=1S/CN.CH3.Hg/c1-2;;/h;1H3;,-0.0821,C[Hg]C#N,0,G1,B,None,None,Uncharged
B-1914,"InChI=1S/C9H9NO4/c1-4-6(8(11)12)3-7(9(13)14)5(2)10-4/h3H,1-2H3,(H,11,12)(H,13,14)",-2.809,CC1=NC(C)=C(C=C1C([O-])=O)C([O-])=O,0,G1,B,None,None,Negative
B-1915,"InChI=1S/C20H14N2O10S3.3Na/c23-16-7-5-11-9-12(33(24,25)26)10-18(35(30,31)32)19(11)20(16)22-21-15-6-8-17(34(27,28)29)14-4-2-1-3-13(14)15;;;/h1-10,21H,(H,24,25,26)(H,27,28,29)(H,30,31,32);;;/q;3*+1/p-3/b22-20+;;;",-0.8783,[O-]S(=O)(=O)C1=CC2=C(C(=NNC3=CC=C(C4=CC=CC=C34)S([O-])(=O)=O)C(=O)C=C2)C(=C1)S([O-])(=O)=O,0.290757334,G3,B,None,None,Negative
B-1916,"InChI=1S/C10H11NO3/c1-7(12)11-9-3-5-10(6-4-9)14-8(2)13/h3-6H,1-2H3,(H,11,12)",-1.9076,CC(=O)NC1=CC=C(OC(C)=O)C=C1,0,G1,B,None,None,Uncharged
B-1917,InChI=1S/C10H12N4O2/c1-5-6(2)12-8-7(11-5)9(15)14(4)10(16)13(8)3/h1-4H3,-1.3429,CN1C(=O)N(C)C2=NC(C)=C(C)N=C2C1=O,0,G1,B,None,None,Uncharged
B-1918,"InChI=1S/C10H11NO4/c1-2-3-10(12)15-9-6-4-8(5-7-9)11(13)14/h4-7H,2-3H2,1H3",-3.9404,CCCC(=O)OC1=CC=C(C=C1)[N+]([O-])=O,0,G1,B,None,None,PureChargeSeparation
B-1919,"InChI=1S/C10H7NO2/c12-9-6-5-7-3-1-2-4-8(7)10(9)11-13/h1-6,12H",-2.9374,OC1=C(N=O)C2=CC=CC=C2C=C1,0.34945,G3,B,None,None,Uncharged
B-1920,"InChI=1S/C12H16N4O4/c1-11(7-13,5-3-9(17)18)15-16-12(2,8-14)6-4-10(19)20/h3-6H2,1-2H3,(H,17,18)(H,19,20)/p-2/t11-,12+",-2.0083,CC(CCC([O-])=O)(N=NC(C)(CCC([O-])=O)C#N)C#N,0.266159841,G3,B,None,None,Negative
B-1921,"InChI=1S/C12H16N3O3PS2/c1-3-17-19(20,18-4-2)21-9-15-12(16)10-7-5-6-8-11(10)13-14-15/h5-8H,3-4,9H2,1-2H3",-4.5171,CCOP(=S)(OCC)SCN1N=NC2=CC=CC=C2C1=O,0,G1,B,None,None,Uncharged
B-1922,"InChI=1S/C18H13N/c19-18-11-17-13-6-2-1-5-12(13)9-10-15(17)14-7-3-4-8-16(14)18/h1-11H,19H2",-6.1958,NC1=CC2=C(C=CC3=C2C=CC=C3)C2=C1C=CC=C2,0,G1,B,None,None,Uncharged
B-1923,"InChI=1S/C16H25NO2/c1-15(2,3)11-8-12(16(4,5)6)10-13(9-11)19-14(18)17-7/h8-10H,1-7H3,(H,17,18)",-4.2445,CNC(=O)OC1=CC(=CC(=C1)C(C)(C)C)C(C)(C)C,0,G1,B,None,None,Uncharged
B-1924,"InChI=1S/C8H8Cl2O2/c1-11-7-3-6(10)8(12-2)4-5(7)9/h3-4H,1-2H3",-4.413,COC1=CC(Cl)=C(OC)C=C1Cl,0,G1,B,None,None,Uncharged
B-1925,"InChI=1S/C4H9NO2/c1-5-3-2-4(6)7/h5H,2-3H2,1H3,(H,6,7)",-0.0543,C[NH2+]CCC([O-])=O,0,G1,B,None,None,Zwitterion
B-1926,InChI=1S/C12H9ClO/c13-11-8-4-5-9-12(11)14-10-6-2-1-3-7-10/h1-9H,-4.7796,ClC1=CC=CC=C1OC1=CC=CC=C1,0,G1,B,None,None,Uncharged
B-1927,"InChI=1S/C8H19O4P/c1-4-7-8-12-13(9,10-5-2)11-6-3/h4-8H2,1-3H3",-1.1466,CCCCOP(=O)(OCC)OCC,0,G1,B,None,None,Uncharged
B-1928,"InChI=1S/C8H17NO2/c1-4-11-8(10)7(9)5-6(2)3/h6-7H,4-5,9H2,1-3H3/t7-/m0/s1",-0.5606,CCOC(=O)C([NH3+])CC(C)C,0,G1,B,None,None,Positive
B-1929,"InChI=1S/C22H24N2O6S2/c25-19(11-15-7-3-1-4-8-15)23-17(21(27)28)13-31-32-14-18(22(29)30)24-20(26)12-16-9-5-2-6-10-16/h1-10,17-18H,11-14H2,(H,23,25)(H,24,26)(H,27,28)(H,29,30)",-1.833,[O-]C(=O)C(CSSCC(NC(=O)CC1=CC=CC=C1)C([O-])=O)NC(=O)CC1=CC=CC=C1,0,G1,B,None,None,Negative
B-1930,"InChI=1S/C12H12N2/c1-3-7-13-9-10-14-8-4-2-6-12(14)11(13)5-1/h1-8H,9-10H2/q+2",-3.425,C1C[N+]2=CC=CC=C2C2=CC=CC=[N+]12,0,G1,B,None,None,Positive
B-1931,"InChI=1S/C8H8Cl2O2/c1-11-7-3-5(9)6(10)4-8(7)12-2/h3-4H,1-2H3",-3.4588,COC1=CC(Cl)=C(Cl)C=C1OC,0,G1,B,None,None,Uncharged
B-1932,"InChI=1S/C9H13O6PS/c1-12-9-5-15-7(4-8(9)10)6-17-16(11,13-2)14-3/h4-5H,6H2,1-3H3",0.7286,COC1=COC(CSP(=O)(OC)OC)=CC1=O,0,G1,B,None,None,Uncharged
B-1933,"InChI=1S/C2H8O7P2/c1-2(3,10(4,5)6)11(7,8)9/h3H,1H3,(H2,4,5,6)(H2,7,8,9)",0.5249,CC(O)(P(O)([O-])=O)P([O-])([O-])=O,0,G1,B,None,None,Negative
B-1935,"InChI=1S/C6H14N2/c1-5-3-8-6(2)4-7-5/h5-8H,3-4H2,1-2H3/p+2/t5-,6+",0.4864,CC1C[NH2+]C(C)CN1,0,G1,B,None,None,Positive
B-1936,"InChI=1S/C5H6O3/c1-4(6)2-3-5(7)8/h2-3H,1H3,(H,7,8)",-0.2332,CC(=O)C=CC([O-])=O,0,G1,B,None,None,Negative
B-1937,"InChI=1S/C11H21BrO2/c12-10-8-6-4-2-1-3-5-7-9-11(13)14/h1-10H2,(H,13,14)",-3.699,[O-]C(=O)CCCCCCCCCCBr,0,G1,B,None,None,Negative
B-1938,"InChI=1S/C4H9NO2/c1-2-3(5)4(6)7/h3H,2,5H2,1H3,(H,6,7)",0.2868,CCC([NH3+])C([O-])=O,0.020789581,G5,B,None,None,Zwitterion
B-1939,"InChI=1S/C2HClF4/c3-1(4)2(5,6)7/h1H",-1.959,FC(Cl)C(F)(F)F,0,G1,B,None,None,Uncharged
B-1940,"InChI=1S/C7H7ClO/c1-9-7-4-2-3-6(8)5-7/h2-5H,1H3",-2.783,COC1=CC=CC(Cl)=C1,0,G1,B,None,None,Uncharged
B-1941,"InChI=1S/C9H11Cl3NO3PS/c1-3-14-17(18,15-4-2)16-9-7(11)5-6(10)8(12)13-9/h5H,3-4H2,1-2H3",-5.4956,CCOP(=S)(OCC)OC1=NC(Cl)=C(Cl)C=C1Cl,0.111780897,G5,B,None,None,Uncharged
B-1942,"InChI=1S/C6H7NO/c7-4-5-2-1-3-6(5)8/h5H,1-3H2",-0.3567,O=C1CCCC1C#N,0,G1,B,None,None,Uncharged
B-1943,"InChI=1S/C7H15NOS/c1-4-8(5-2)7(9)10-6-3/h4-6H2,1-3H3",-1.6917,CCSC(=O)N(CC)CC,0,G1,B,None,None,Uncharged
B-1944,"InChI=1S/C12H15O3P/c1-3-10-14-16(13,15-11-4-2)12-8-6-5-7-9-12/h3-9H,1-2,10-11H2",-2.8999,C=CCOP(=O)(OCC=C)C1=CC=CC=C1,0,G1,B,None,None,Uncharged
B-1945,"InChI=1S/C12H27O2P/c1-4-7-10-14-15(13,11-8-5-2)12-9-6-3/h4-12H2,1-3H3",-1.7166,CCCCOP(=O)(CCCC)CCCC,0,G1,B,None,None,Uncharged
B-1946,"InChI=1S/C7H7Cl2NO/c1-3-5(8)7(11)6(9)4(2)10-3/h1-2H3,(H,10,11)",-4.2834,CC1=C(Cl)C(=O)C(Cl)=C(C)[N-]1,0,G1,B,None,None,Negative
B-1947,"InChI=1S/C7H5BrO2/c8-6-3-5(4-9)1-2-7(6)10/h1-4,10H",-2.1794,[O-]C1=CC=C(C=O)C=C1Br,0,G1,B,None,None,Negative
B-1948,InChI=1S/C12H8Cl2/c13-11-6-4-9(5-7-11)10-2-1-3-12(14)8-10/h1-8H,-6.4001,ClC1=CC=C(C=C1)C1=CC=CC(Cl)=C1,0,G1,B,None,None,Uncharged
B-1949,"InChI=1S/C8H6Cl2O3/c9-5-2-1-3-6(8(5)10)13-4-7(11)12/h1-3H,4H2,(H,11,12)",-2.8097,[O-]C(=O)COC1=CC=CC(Cl)=C1Cl,0,G1,B,None,None,Negative
B-1950,"InChI=1S/C7H12O4/c1-4-10-7(9)5(2)11-6(3)8/h5H,4H2,1-3H3",-0.6994,CCOC(=O)C(C)OC(C)=O,0,G1,B,None,None,Uncharged
B-1951,"InChI=1S/C7H6N2S/c8-5-10-7-3-1-6(9)2-4-7/h1-4H,9H2",-2.6015,NC1=CC=C(SC#N)C=C1,0,G1,B,None,None,Uncharged
B-1952,"InChI=1S/C6H4F3N5/c7-6(8,9)3-2-4(12-1-11-2)14-5(10)13-3/h1H,(H3,10,11,12,13,14)",-3.1346,NC1=NC(=C2NC=NC2=N1)C(F)(F)F,0,G1,B,None,None,Uncharged
B-1953,"InChI=1S/C11H21N5O/c1-6-16(7-2)10-13-9(12-8(3)4)14-11(15-10)17-5/h8H,6-7H2,1-5H3,(H,12,13,14,15)",-4.889,CCN(CC)C1=NC(NC(C)C)=NC(OC)=N1,0,G1,B,None,None,Uncharged
B-1954,"InChI=1S/C7H12ClN5/c1-4(2)10-7-12-5(8)11-6(9-3)13-7/h4H,1-3H3,(H2,9,10,11,12,13)",-2.8896,CNC1=NC(Cl)=NC(NC(C)C)=N1,0,G1,B,None,None,Uncharged
B-1955,"InChI=1S/C7H5NO4/c9-4-5-1-2-7(10)6(3-5)8(11)12/h1-4,10H",-2.9512,[O-]C1=CC=C(C=O)C=C1[N+]([O-])=O,0,G1,B,None,None,Negative
B-1956,"InChI=1S/C3H6BrCl/c1-3(4)2-5/h3H,2H2,1H3",-1.8476,CC(Br)CCl,0,G1,B,None,None,Uncharged
B-1957,"InChI=1S/C8H15N5O/c1-5(2)10-7-11-6(9-3)12-8(13-7)14-4/h5H,1-4H3,(H2,9,10,11,12,13)",-1.7509,CNC1=NC(NC(C)C)=NC(OC)=N1,0,G1,B,None,None,Uncharged
B-1958,"InChI=1S/C10H8BrN3O/c11-9-8(12)6-13-14(10(9)15)7-4-2-1-3-5-7/h1-6H,12H2",-3.124,NC1=C(Br)C(=O)N(N=C1)C1=CC=CC=C1,0,G1,B,None,None,Uncharged
B-1960,"InChI=1S/C7H15NO2/c1-5(2)4-6(8-3)7(9)10/h5-6,8H,4H2,1-3H3,(H,9,10)/t6-/m0/s1",-0.5146,C[NH2+]C(CC(C)C)C([O-])=O,0,G1,B,None,None,Zwitterion
B-1961,"InChI=1S/C7H13NO3/c1-4(2)6(7(10)11)8-5(3)9/h4,6H,1-3H3,(H,8,9)(H,10,11)",-0.6325,CC(C)C(NC(C)=O)C([O-])=O,0.13595,G3,B,None,None,Negative
B-1962,"InChI=1S/C7H12/c1-3-5-7-6-4-2/h3-4H,1-2,5-7H2",-3.3396,C=CCCCC=C,0,G1,B,None,None,Uncharged