ID,InChI,Solubility,SMILEScurated,SD,Group,Dataset,Composition,Error,Charge
A-1716,"InChI=1S/C9H12O2/c1-9(2,11-10)8-6-4-3-5-7-8/h3-7,10H,1-2H3",-1.039379878,CC(C)(OO)C1=CC=CC=C1,0,G1,A,mono-constituent,Unstable,Uncharged
A-1718,"InChI=1S/C14H20O4/c15-14(9-2-4-11-13(6-9)18-11)16-7-8-1-3-10-12(5-8)17-10/h8-13H,1-7H2",-1.26048469,O=C(OCC1CCC2OC2C1)C1CCC2OC2C1,0,G1,A,mono-constituent,None,Uncharged
A-1720,InChI=1S/C3H6O3/c1-5-3(4)6-2/h1-2H3,0.185260351,COC(=O)OC,0.040157834,G3,A,mono-constituent,None,Uncharged
A-1723,"InChI=1S/C10H16O2/c1-8(2)10(11)12-9-6-4-3-5-7-9/h9H,1,3-7H2,2H3",-3.088564823,CC(=C)C(=O)OC1CCCCC1,0.006751235,G3,A,mono-constituent,None,Uncharged
A-1726,"InChI=1S/C11H14O2/c1-2-11(12)13-9-8-10-6-4-3-5-7-10/h3-7H,2,8-9H2,1H3",-3.117444335,CCC(=O)OCCC1=CC=CC=C1,0,G1,A,mono-constituent,None,Uncharged
A-1727,"InChI=1S/C11H14O2/c1-2-6-11(12)13-9-10-7-4-3-5-8-10/h3-5,7-8H,2,6,9H2,1H3",-3.117444335,CCCC(=O)OCC1=CC=CC=C1,0.158343549,G3,A,mono-constituent,None,Uncharged
A-1728,"InChI=1S/C8H10N2O4S/c1-5(11)10-6-2-3-7(9)8(4-6)15(12,13)14/h2-4H,9H2,1H3,(H,10,11)(H,12,13,14)",-1.231856439,CC(=O)NC1=CC=C(N)C(=C1)S([O-])(=O)=O,0,G1,A,mono-constituent,None,Negative
A-1729,"InChI=1S/H3NO4S/c1-5-6(2,3)4/h1H2,(H,2,3,4)",0.07528272,NOS([O-])(=O)=O,0,G1,A,mono-constituent,None,Negative
A-1730,"InChI=1S/C8H14O3/c1-3-4-5-6-7-11-8(9)10-2/h4-5H,3,6-7H2,1-2H3/b5-4+",-3.069830648,CCC=CCCOC(=O)OC,0,G1,A,None,None,Uncharged
A-1734,"InChI=1S/C7H10/c1-2-7-4-3-6(1)5-7/h1-2,6-7H,3-5H2",-2.847721205,C1CC2CC1C=C2,0,G1,A,mono-constituent,None,Uncharged
A-1735,"InChI=1S/C8H9NO2/c1-6-3-4-8(9(10)11)7(2)5-6/h3-5H,1-2H3",-3.055599607,CC1=CC=C(C(C)=C1)[N+]([O-])=O,0,G1,A,mono-constituent,None,PureChargeSeparation
A-1736,"InChI=1S/C9H7NO2S2/c11-8(12)5-13-9-10-6-3-1-2-4-7(6)14-9/h1-4H,5H2,(H,11,12)",-3.228897985,[O-]C(=O)CSC1=NC2=CC=CC=C2S1,0,G1,A,mono-constituent,None,Negative
A-1740,"InChI=1S/C13H18O/c1-13(2,3)12-8-6-11(7-9-12)5-4-10-14/h6-10H,4-5H2,1-3H3",-3.158832906,CC(C)(C)C1=CC=C(CCC=O)C=C1,0,G1,A,mono-constituent,None,Uncharged
A-1741,"InChI=1S/C7H4N2O6/c10-7(11)4-1-5(8(12)13)3-6(2-4)9(14)15/h1-3H,(H,10,11)",-2.207649723,[O-]C(=O)C1=CC(=CC(=C1)[N+]([O-])=O)[N+]([O-])=O,0.005724862,G3,A,mono-constituent,None,Negative
A-1743,"InChI=1S/C26H50N4O2/c1-23(2)15-21(16-24(3,4)27-23)29(19-31)13-11-9-10-12-14-30(20-32)22-17-25(5,6)28-26(7,8)18-22/h19-22,27-28H,9-18H2,1-8H3",-1.539955769,CC1(C)CC(CC(C)(C)[NH2+]1)N(CCCCCCN(C=O)C1CC(C)(C)[NH2+]C(C)(C)C1)C=O,0,G1,A,mono-constituent,None,Positive
A-1744,"InChI=1S/CH5N3S/c2-1(5)4-3/h3H2,(H3,2,4,5)",-0.845760907,NNC(N)=S,0.056971676,G3,A,mono-constituent,None,Uncharged
A-1746,"InChI=1S/C10H20O2/c1-3-5-6-9(4-2)10-11-7-8-12-10/h9-10H,3-8H2,1-2H3",-3.119596868,CCCCC(CC)C1OCCO1,0,G1,A,mono-constituent,None,Uncharged
A-1747,"InChI=1S/C10H22O2/c1-7-9(3,4)11-12-10(5,6)8-2/h7-8H2,1-6H3",-4.100435339,CCC(C)(C)OOC(C)(C)CC,0,G1,A,mono-constituent,Non Valid pH,Uncharged
A-1748,"InChI=1S/C14H22O/c1-5-12(15)8-9-13-11(2)7-6-10-14(13,3)4/h8-9H,5-7,10H2,1-4H3/b9-8+",-4.187455475,CCC(=O)C=CC1=C(C)CCCC1(C)C,0.420773745,G3,A,mono-constituent,Unstable,Uncharged
A-1749,"InChI=1S/C16H30O4/c1-10(2)13(20-15(18)12(5)6)16(7,8)9-19-14(17)11(3)4/h10-13H,9H2,1-8H3",-4.333139569,CC(C)C(OC(=O)C(C)C)C(C)(C)COC(=O)C(C)C,0,G1,A,mono-constituent,None,Uncharged
A-1750,"InChI=1S/C12H22O2/c1-4-12(13)14-11-7-5-10(6-8-11)9(2)3/h9-11H,4-8H2,1-3H3",-4.173484214,CCC(=O)OC1CCC(CC1)C(C)C,0,G1,A,multi-constituent,None,Uncharged
A-1751,"InChI=1S/C11H26O3Si/c1-5-6-7-8-9-10-11-15(12-2,13-3)14-4/h5-11H2,1-4H3",-4.246128199,CCCCCCCC[Si](OC)(OC)OC,0,G1,A,mono-constituent,None,Uncharged
A-1753,"InChI=1S/C12H24O6/c1-7-10(4)13-15-11(5,8-2)17-18-12(6,9-3)16-14-10/h7-9H2,1-6H3",-4.304855444,CCC1(C)OOC(C)(CC)OOC(C)(CC)OO1,0,G1,A,mono-constituent,Non Valid pH,Uncharged
A-1756,"InChI=1S/C20H20O6/c21-20-12-23-19(14-9-5-2-6-10-14)25-17(20)16-15(26-20)11-22-18(24-16)13-7-3-1-4-8-13/h1-10,15-19,21H,11-12H2/t15-,16+,17-,18?,19?,20+/m1/s1",-4.437962659,OC12COC(OC1C1OC(OCC1O2)C1=CC=CC=C1)C1=CC=CC=C1,0,G1,A,None,None,Uncharged
A-1759,"InChI=1S/C12H12N2O3/c1-2-17-12(16)10-8-11(15)14(13-10)9-6-4-3-5-7-9/h3-7H,2,8H2,1H3",-3.255345443,CCOC(=O)C1=CC(=O)N([N-]1)C1=CC=CC=C1,0,G1,A,mono-constituent,None,Negative
A-1762,"InChI=1S/C8H14O/c1-2-3-4-5-6-7-8-9/h2,8H,1,3-7H2",-1.997252193,C=CCCCCCC=O,0,G1,A,mono-constituent,Non Valid pH,Uncharged
A-1764,"InChI=1S/C14H12O2/c15-14(16)13(11-7-3-1-4-8-11)12-9-5-2-6-10-12/h1-10,13H,(H,15,16)",-3.223039886,[O-]C(=O)C(C1=CC=CC=C1)C1=CC=CC=C1,0,G1,A,mono-constituent,None,Negative
A-1769,"InChI=1S/C4H7ClO2/c1-3(2)7-4(5)6/h3H,1-2H3",-0.988291129,CC(C)OC(Cl)=O,0,G1,A,mono-constituent,None,Uncharged
A-1770,"InChI=1S/C7H6O3.Na/c8-6-4-2-1-3-5(6)7(9)10;/h1-4,8H,(H,9,10);/q;+1/p-1",-0.107492169,OC1=CC=CC=C1C([O-])=O,0.452404757,G5,A,mono-constituent,None,Negative
A-1772,"InChI=1S/C10H10O2/c1-8(12-9(2)11)10-6-4-3-5-7-10/h3-7H,1H2,2H3",-2.113595388,CC(=O)OC(=C)C1=CC=CC=C1,0,G1,A,mono-constituent,None,Uncharged
A-1773,"InChI=1S/C9H16O4/c1-4-11-8(10)5-9(3)12-6-7(2)13-9/h7H,4-6H2,1-3H3",-2.179887223,CCOC(=O)CC1(C)OCC(C)O1,0,G1,A,multi-constituent,None,Uncharged
A-1775,InChI=1S/C6H4Cl2/c7-5-2-1-3-6(8)4-5/h1-4H,-3.072159801,ClC1=CC(Cl)=CC=C1,0.033737427,G5,A,mono-constituent,None,Uncharged
A-1776,"InChI=1S/C9H12O/c1-8-4-2-3-5-9(8)6-7-10/h2-5,10H,6-7H2,1H3",-1.042878011,CC1=CC=CC=C1CCO,0,G1,A,mono-constituent,None,Uncharged
A-1779,"InChI=1S/C6H5ClO2/c7-5-2-1-4(8)3-6(5)9/h1-3,8-9H",-1.070567643,OC1=CC=C(Cl)C(O)=C1,0.936164279,G4,A,mono-constituent,None,Uncharged
A-1780,"InChI=1S/C10H16O/c1-6-8-4-7(5-9(6)11)10(8,2)3/h7-9,11H,1,4-5H2,2-3H3",-2.09612479,CC1(C)C2CC1C(=C)C(O)C2,0,G1,A,mono-constituent,None,Uncharged
A-1781,"InChI=1S/C9H18O/c1-7(2)8-3-5-9(10)6-4-8/h7-10H,3-6H2,1-2H3",-2.068094275,CC(C)C1CCC(O)CC1,0,G1,A,multi-constituent,None,Uncharged
A-1782,InChI=1S/C6H3Cl2NO2/c7-5-2-1-4(9(10)11)3-6(5)8/h1-3H,-3.20051812,[O-][N+](=O)C1=CC=C(Cl)C(Cl)=C1,0,G1,A,mono-constituent,None,PureChargeSeparation
A-1783,"InChI=1S/C16H12Cl2N4O7S2.2Na/c1-8-15(20-19-9-2-4-10(5-3-9)30(24,25)26)16(23)22(21-8)13-6-12(18)14(7-11(13)17)31(27,28)29;;/h2-7,15H,1H3,(H,24,25,26)(H,27,28,29);;/q;2*+1/p-2",-0.66054277,CC1=NN(C(=O)C1N=NC1=CC=C(C=C1)S([O-])(=O)=O)C1=CC(Cl)=C(C=C1Cl)S([O-])(=O)=O,0,G1,A,mono-constituent,None,Negative
A-1784,"InChI=1S/C6H8O7.Fe.H3N/c7-3(8)1-6(13,5(11)12)2-4(9)10;;/h13H,1-2H2,(H,7,8)(H,9,10)(H,11,12);;1H3/q;+3;/p-3",0.660921397,OC(CC([O-])=O)(CC([O-])=O)C([O-])=O,0,G1,A,mono-constituent,None,Negative
A-1785,"InChI=1S/C12H11N3O6S2.2Na/c13-11-6-3-9(7-12(11)23(19,20)21)15-14-8-1-4-10(5-2-8)22(16,17)18;;/h1-7H,13H2,(H,16,17,18)(H,19,20,21);;/q;2*+1/p-2",-0.524323625,NC1=CC=C(C=C1S([O-])(=O)=O)N=NC1=CC=C(C=C1)S([O-])(=O)=O,0,G1,A,mono-constituent,None,Negative
A-1787,"InChI=1S/C21H32O9/c1-4-19(22)28-13-7-10-25-16-18(27-12-9-15-30-21(24)6-3)17-26-11-8-14-29-20(23)5-2/h4-6,18H,1-3,7-17H2",-2.552747282,C=CC(=O)OCCCOCC(COCCCOC(=O)C=C)OCCCOC(=O)C=C,0,G1,A,UVCB,None,Uncharged
A-1789,"InChI=1S/C10H13NO4S/c1-8(13)11-9-2-4-10(5-3-9)16(14,15)7-6-12/h2-5,12H,6-7H2,1H3,(H,11,13)",-2.306932302,CC(=O)NC1=CC=C(C=C1)S(=O)(=O)CCO,0,G1,A,mono-constituent,None,Uncharged
A-1790,InChI=1S/C2H2/c1-2/h1-2H,-1.336426377,C#C,0.813213188,G2,A,mono-constituent,None,Uncharged
A-1791,"InChI=1S/C9H10O/c1-2-9(10)8-6-4-3-5-7-8/h3-7H,2H2,1H3",-2.048500068,CCC(=O)C1=CC=CC=C1,0.110900034,G3,A,mono-constituent,None,Uncharged
A-1792,"InChI=1S/C11H14O/c1-11(2,3)10-6-4-9(8-12)5-7-10/h4-8H,1-3H3",-3.130955276,CC(C)(C)C1=CC=C(C=O)C=C1,0.05121235,G5,A,mono-constituent,None,Uncharged
A-1793,"InChI=1S/C10H9NO3S/c11-9-3-1-8-6-10(15(12,13)14)4-2-7(8)5-9/h1-6H,11H2,(H,12,13,14)",-3.269616058,NC1=CC2=CC=C(C=C2C=C1)S([O-])(=O)=O,0,G1,A,mono-constituent,None,Negative
A-1794,"InChI=1S/C14H24O.C3H4O/c1-5-12(15)8-9-13-11(2)7-6-10-14(13,3)4;1-2-3-4/h7,13H,5-6,8-10H2,1-4H3;1,4H,3H2",-4.321905689,CCC(=O)CCC1C(C)=CCCC1(C)C,0,G1,A,multi-constituent,Cosolvent Buffer,Uncharged
A-1795,"InChI=1S/C8H17NO3/c1-3-5-6-8(4-2)7-12-9(10)11/h8H,3-7H2,1-2H3",-4.146693491,CCCCC(CC)CO[N+]([O-])=O,0,G1,A,mono-constituent,None,PureChargeSeparation
A-1796,"InChI=1S/C11H22O/c1-5-12-10-6-9(2)7-11(3,4)8-10/h9-10H,5-8H2,1-4H3",-4.134294434,CCOC1CC(C)CC(C)(C)C1,0,G1,A,multi-constituent,None,Uncharged
A-1797,"InChI=1S/C11H20O2/c1-4-11(12)13-9-7-5-6-8-10(2)3/h4,10H,1,5-9H2,2-3H3",-4.170655467,CC(C)CCCCCOC(=O)C=C,0,G1,A,UVCB,None,Uncharged
A-1798,"InChI=1S/C14H15NO2S/c16-13-11-8-4-5-9-12(11)14(17)15(13)18-10-6-2-1-3-7-10/h4-5,8-10H,1-3,6-7H2",-4.323794172,O=C1N(SC2CCCCC2)C(=O)C2=CC=CC=C12,0,G1,A,mono-constituent,Non Valid pH,Uncharged
A-1799,"InChI=1S/C44H52N4O6S2/c1-25-23-27(3)43(55(51,52)47-31-15-9-7-10-16-31)29(5)39(25)45-35-21-22-36(38-37(35)41(49)33-19-13-14-20-34(33)42(38)50)46-40-26(2)24-28(4)44(30(40)6)56(53,54)48-32-17-11-8-12-18-32/h13-14,19-24,31-32,45-48H,7-12,15-18H2,1-6H3",-4.818703465,CC1=CC(C)=C(C(C)=C1NC1=CC=C(NC2=C(C)C=C(C)C(=C2C)S(=O)(=O)NC2CCCCC2)C2=C1C(=O)C1=CC=CC=C1C2=O)S(=O)(=O)NC1CCCCC1,0,G1,A,mono-constituent,None,Uncharged
A-1800,"InChI=1S/C14H19NO/c1-9-8-12(14(3,4)5)13(16)10(2)11(9)6-7-15/h8,16H,6H2,1-5H3",-4.257902463,CC1=CC(=C(O)C(C)=C1CC#N)C(C)(C)C,0,G1,A,mono-constituent,None,Uncharged
A-1801,InChI=1S/Cd.S,-4.080623481,S=[Cd],0,G1,A,mono-constituent,None,Uncharged
A-1802,"InChI=1S/C19H33O4P/c1-9-22-24(21,23-10-2)13-14-11-15(18(3,4)5)17(20)16(12-14)19(6,7)8/h11-12,20H,9-10,13H2,1-8H3",-4.472808844,CCOP(=O)(CC1=CC(=C(O)C(=C1)C(C)(C)C)C(C)(C)C)OCC,0,G1,A,mono-constituent,None,Uncharged
A-1803,InChI=1S/2Fe.2Mo.9O/q2*+3;;;9*-2,-4.57167099,O,0,G1,A,None,Multi-constituent Substances,Uncharged
A-1805,"InChI=1S/2C10H20O2.Zn/c2*1-9(2,3)7-10(4,5)6-8(11)12;/h2*6-7H2,1-5H3,(H,11,12);/q;;+2/p-2",-3.534288097,CC(C)(C)CC(C)(C)CC([O-])=O,0.396653726,G3,A,None,None,Negative
A-1806,"InChI=1S/C10H17N/c1-9(2)5-4-6-10(3)7-8-11/h5,10H,4,6-7H2,1-3H3",-3.104157036,CC(CCC=C(C)C)CC#N,0,G1,A,mono-constituent,Non Valid pH,Uncharged
A-1807,"InChI=1S/C8H7NO4/c1-6(10)13-8-5-3-2-4-7(8)9(11)12/h2-5H,1H3",-2.185523911,CC(=O)OC1=CC=CC=C1[N+]([O-])=O,0,G1,A,mono-constituent,None,PureChargeSeparation
A-1808,"InChI=1S/C17H20N2O3/c1-3-21-15-11-14(16(22-4-2)10-13(15)18)19-17(20)12-8-6-5-7-9-12/h5-11H,3-4,18H2,1-2H3,(H,19,20)",-2.405757197,CCOC1=CC(NC(=O)C2=CC=CC=C2)=C(OCC)C=C1N,0,G1,A,mono-constituent,Non Valid pH,Uncharged
A-1809,"InChI=1S/C7H5NS2/c9-7-8-5-3-1-2-4-6(5)10-7/h1-4H,(H,8,9)",-3.151504892,S=C1[N-]C2=CC=CC=C2S1,0.461732065,G5,A,mono-constituent,None,Negative
A-1814,"InChI=1S/C9H10N2O/c12-9-6-7-11(10-9)8-4-2-1-3-5-8/h1-5H,6-7H2,(H,10,12)",-1.144823301,O=C1CCN(N1)C1=CC=CC=C1,0,G1,A,mono-constituent,None,Uncharged
A-1815,"InChI=1S/C8H9Cl/c1-7-4-2-3-5-8(7)6-9/h2-5H,6H2,1H3",-3.081326924,CC1=CC=CC=C1CCl,0,G1,A,mono-constituent,None,Uncharged
A-1816,"InChI=1S/C9H10/c1-8(2)9-6-4-3-5-7-9/h3-7H,1H2,2H3",-3.008082322,CC(=C)C1=CC=CC=C1,0.338530636,G5,A,mono-constituent,None,Uncharged
A-1817,"InChI=1S/C10H12O2/c1-3-4-8-5-6-9(11)10(7-8)12-2/h3,5-7,11H,1,4H2,2H3",-2.153177924,COC1=CC(CC=C)=CC=C1O,0.295488962,G3,A,mono-constituent,None,Uncharged
A-1819,"InChI=1S/C18H38.K.H3O4P/c1-3-5-7-9-11-13-15-17-18-16-14-12-10-8-6-4-2;;1-5(2,3)4/h3-18H2,1-2H3;;(H3,1,2,3,4)",-3.529803064,CCCCCCCCCCCCCCCCCC,0.318191353,G5,A,None,Cosolvent Buffer,Uncharged
A-1821,InChI=1S/K.HO3Si/c;1-4(2)3/h;1H/q+1;-1,-3.004467174,O[Si]([O-])=O,0,G1,A,None,None,Negative
A-1822,InChI=1S/2Na.O3Si.5H2O/c;;1-4(2)3;;;;;/h;;;5*1H2/q2*+1;-2;;;;;,-3.26592063,O[Si]([O-])=O,0,G1,A,None,None,Negative
A-1823,InChI=1S/C6H4F2/c7-5-2-1-3-6(8)4-5/h1-4H,-2.000357955,FC1=CC(F)=CC=C1,0,G1,A,mono-constituent,None,Uncharged
A-1825,"InChI=1S/CH2O3.Cd/c2-1(3)4;/h(H2,2,3,4);/q;+2/p-2",-2.179682789,OC([O-])=O,0,G1,A,mono-constituent,None,Negative
A-1826,"InChI=1S/C10H18O2/c1-4-5-6-7-8-12-10(11)9(2)3/h5-6,9H,4,7-8H2,1-3H3/b6-5-",-3.174187371,CCC=CCCOC(=O)C(C)C,0,G1,A,mono-constituent,None,Uncharged
A-1827,"InChI=1S/C32H30N2O8S2.C6H16N2/c1-15-13-17(3)31(43(37,38)39)19(5)27(15)33-23-11-12-24(26-25(23)29(35)21-9-7-8-10-22(21)30(26)36)34-28-16(2)14-18(4)32(20(28)6)44(40,41)42;7-5-3-1-2-4-6-8/h7-14,33-34H,1-6H3,(H,37,38,39)(H,40,41,42);1-8H2",-2.820609377,CC1=CC(C)=C(C(C)=C1NC1=CC=C(NC2=C(C)C=C(C)C(=C2C)S([O-])(=O)=O)C2=C1C(=O)C1=CC=CC=C1C2=O)S([O-])(=O)=O,0,G1,A,mono-constituent,Cosolvent Buffer,Negative
A-1829,"InChI=1S/C14H22O/c1-9-13(2,3)10-7-6-8-11(15)12(10)14(9,4)5/h9H,6-8H2,1-5H3",-3.265342251,CC1C(C)(C)C2=C(C(=O)CCC2)C1(C)C,0.179068265,G3,A,mono-constituent,None,Uncharged
A-1832,"InChI=1S/C19H24O4/c1-19(2,15-3-7-17(8-4-15)22-13-11-20)16-5-9-18(10-6-16)23-14-12-21/h3-10,20-21H,11-14H2,1-2H3",-3.451790553,CC(C)(C1=CC=C(OCCO)C=C1)C1=CC=C(OCCO)C=C1,0.398297095,G3,A,mono-constituent,None,Uncharged
A-1833,"InChI=1S/C6H15N/c1-5(2)7-6(3)4/h5-7H,1-4H3",0.036242214,CC(C)[NH2+]C(C)C,0,G1,A,mono-constituent,None,Positive
A-1835,"InChI=1S/C27H32O14/c1-10-20(32)22(34)24(36)26(37-10)41-25-23(35)21(33)18(9-28)40-27(25)38-13-6-14(30)19-15(31)8-16(39-17(19)7-13)11-2-4-12(29)5-3-11/h2-7,10,16,18,20-30,32-36H,8-9H2,1H3/t10-,16-,18+,20-,21+,22+,23-,24+,25+,26-,27+/m0/s1",-2.722438715,CC1OC(OC2C(O)C(O)C(CO)OC2OC2=CC(O)=C3C(=O)CC(OC3=C2)C2=CC=C(O)C=C2)C(O)C(O)C1O,0.17121134,G3,A,mono-constituent,None,Uncharged
A-1836,"InChI=1S/C2H2O4.Sn/c3-1(4)2(5)6;/h(H,3,4)(H,5,6);/q;+2/p-2",-2.274008719,[O-]C(=O)C([O-])=O,0,G1,A,mono-constituent,None,Negative
A-1837,"InChI=1S/CH2O3.Mg/c2-1(3)4;/h(H2,2,3,4);/q;+2/p-2",-2.884501857,OC([O-])=O,0.268801001,G3,A,mono-constituent,None,Negative
A-1839,"InChI=1S/C16H22O4/c1-11(2)9-19-15(17)13-7-5-6-8-14(13)16(18)20-10-12(3)4/h5-8,11-12H,9-10H2,1-4H3",-4.383890265,CC(C)COC(=O)C1=CC=CC=C1C(=O)OCC(C)C,0.222786888,G5,A,mono-constituent,None,Uncharged
A-1840,"InChI=1S/C23H38N2O8/c1-16(2)19(26)30-10-12-32-21(28)24-9-8-18(5)14-23(6,7)15-25-22(29)33-13-11-31-20(27)17(3)4/h18H,1,3,8-15H2,2,4-7H3,(H,24,28)(H,25,29)",-4.619923834,CC(CCNC(=O)OCCOC(=O)C(C)=C)CC(C)(C)CNC(=O)OCCOC(=O)C(C)=C,0.005650628,G3,A,multi-constituent,Non Valid pH,Uncharged
A-1843,"InChI=1S/C13H24O2/c1-3-11(4-2)10-13(12(14)15)8-6-5-7-9-13/h11H,3-10H2,1-2H3,(H,14,15)",-4.281694517,CCC(CC)CC1(CCCCC1)C([O-])=O,0,G1,A,mono-constituent,Non Valid pH,Negative
A-1844,"InChI=1S/C12H20O4/c1-3-5-9-15-11(13)7-8-12(14)16-10-6-4-2/h7-8H,3-6,9-10H2,1-2H3/b8-7+",-4.313551537,CCCCOC(=O)C=CC(=O)OCCCC,0,G1,A,mono-constituent,None,Uncharged
A-1850,"InChI=1S/C10H14O4/c1-7(2)9(11)13-5-6-14-10(12)8(3)4/h1,3,5-6H2,2,4H3",-2.261313265,CC(=C)C(=O)OCCOC(=O)C(C)=C,0,G1,A,mono-constituent,None,Uncharged
A-1853,"InChI=1S/CH5N.ClH/c1-2;/h2H2,1H3;1H",-1.796002246,C[NH3+],1.483288122,G2,A,None,None,Positive
A-1855,"InChI=1S/C9H10.C9H8.C9H12/c2*1-2-5-9-7-3-6-8(9)4-1;1-7-5-4-6-8(2)9(7)3/h1-2,4-5H,3,6-7H2;1-6H,7H2;4-6H,1-3H3",-3.51623781,CC1=CC=CC(C)=C1C,0.120516033,G3,A,None,Multi-constituent Substances,Uncharged
A-1857,"InChI=1S/C14H12O3/c15-13-8-6-12(7-9-13)14(16)17-10-11-4-2-1-3-5-11/h1-9,15H,10H2",-3.324981323,OC1=CC=C(C=C1)C(=O)OCC1=CC=CC=C1,0.016711878,G3,A,mono-constituent,None,Uncharged
A-1859,InChI=1S/C9H7N/c10-8-4-7-9-5-2-1-3-6-9/h1-7H/b7-4+,-2.082970342,N#CC=CC1=CC=CC=C1,0,G1,A,mono-constituent,None,Uncharged
A-1860,"InChI=1S/C8H11NO6S2/c9-7-2-1-3-8(6-7)16(10,11)5-4-15-17(12,13)14/h1-3,6H,4-5,9H2,(H,12,13,14)",-1.423880849,NC1=CC=CC(=C1)S(=O)(=O)CCOS([O-])(=O)=O,0,G1,A,mono-constituent,Non Valid pH,Negative
A-1861,"InChI=1S/C13H20O/c1-10-6-5-9-13(3,4)12(10)8-7-11(2)14/h6-8,12H,5,9H2,1-4H3/b8-7+",-3.258677936,CC(=O)C=CC1C(C)=CCCC1(C)C,0.288377063,G3,A,mono-constituent,None,Uncharged
A-1863,"InChI=1S/C3H6O2/c1-2-5-3-4/h3H,2H2,1H3",0.151494188,CCOC=O,0.037614298,G3,A,mono-constituent,None,Uncharged
A-1864,"InChI=1S/C7H7NO5S/c8-6-3-4(14(11,12)13)1-2-5(6)7(9)10/h1-3H,8H2,(H,9,10)(H,11,12,13)",-1.315674521,NC1=CC(=CC=C1C([O-])=O)S([O-])(=O)=O,0,G1,A,mono-constituent,None,Negative
A-1865,"InChI=1S/C8H11NO/c9-6-5-7-1-3-8(10)4-2-7/h1-4,10H,5-6,9H2",-1.116107831,[NH3+]CCC1=CC=C(O)C=C1,0,G1,A,mono-constituent,None,Positive
A-1866,"InChI=1S/C23H26N4O6S2.Na/c1-27(16-7-3-2-4-8-16)34(29,30)21-10-6-5-9-19(21)25-26-23-18(24)12-11-15-13-17(35(31,32)33)14-20(28)22(15)23;/h5-6,9-14,16,24-26H,2-4,7-8H2,1H3,(H,31,32,33);/q;+1/p-1",-2.711685939,CN(C1CCCCC1)S(=O)(=O)C1=CC=CC=C1NN=C1C(=N)C=CC2=CC(=CC(O)=C12)S([O-])(=O)=O,0,G1,A,mono-constituent,None,Negative
A-1867,"InChI=1S/C13H18O3/c1-2-3-9-15-10-11-16-13(14)12-7-5-4-6-8-12/h4-8H,2-3,9-11H2,1H3",-3.322422536,CCCCOCCOC(=O)C1=CC=CC=C1,0,G1,A,mono-constituent,None,Uncharged
A-1868,"InChI=1S/C7H8N2O3/c1-12-7-4-5(9(10)11)2-3-6(7)8/h2-4H,8H2,1H3",-3.204512738,COC1=CC(=CC=C1N)[N+]([O-])=O,0,G1,A,mono-constituent,None,PureChargeSeparation
A-1869,InChI=1S/S.Zn,-2.967623739,S=[Zn],1.978948405,G4,A,mono-constituent,None,Uncharged
A-1870,"InChI=1S/C11H18N2O8/c14-8(15)4-12(5-9(16)17)2-1-3-13(6-10(18)19)7-11(20)21/h1-7H2,(H,14,15)(H,16,17)(H,18,19)(H,20,21)",-1.469072537,[O-]C(=O)CN(CCCN(CC([O-])=O)CC([O-])=O)CC([O-])=O,0,G1,A,None,None,Negative
A-1871,"InChI=1S/C6H3F3O/c7-4-1-3(10)2-5(8)6(4)9/h1-2,10H",-0.153609692,OC1=CC(F)=C(F)C(F)=C1,0,G1,A,mono-constituent,None,Uncharged
A-1872,"InChI=1S/C6H12O2/c1-2-3-4-5-6(7)8/h2-5H2,1H3,(H,7,8)",-1.052219379,CCCCCC([O-])=O,0,G1,A,UVCB,None,Negative
A-1873,"InChI=1S/C18H32O7/c1-4-7-10-23-15(19)13-18(22,17(21)25-12-9-6-3)14-16(20)24-11-8-5-2/h22H,4-14H2,1-3H3",-3.545270972,CCCCOC(=O)CC(O)(CC(=O)OCCCC)C(=O)OCCCC,0,G1,A,mono-constituent,None,Uncharged
A-1874,"InChI=1S/C11H18O2/c1-8-4-5-11(9(2)6-8)7-13-10(3)12/h6,9,11H,4-5,7H2,1-3H3",-3.250398558,CC1C=C(C)CCC1COC(C)=O,0,G1,A,multi-constituent,None,Uncharged
A-1875,"InChI=1S/C11H19NO2/c1-3-5-6-10(4-2)9-14-11(13)7-8-12/h10H,3-7,9H2,1-2H3",-3.286478485,CCCCC(CC)COC(=O)CC#N,0,G1,A,mono-constituent,None,Uncharged
A-1876,"InChI=1S/H2O4S.3O.4Pb/c1-5(2,3)4;;;;;;;/h(H2,1,2,3,4);;;;;;;/q;;;;;;;+2/p-2",-3.979450176,[O-]S([O-])(=O)=O,0,G1,A,None,Multi-constituent Substances,Negative
A-1877,"InChI=1S/C16H19N3O4S/c1-16(2)11(15(22)23)19-13(21)10(14(19)24-16)18-12(20)9(17)8-6-4-3-5-7-8/h3-7,9-11,14H,17H2,1-2H3,(H,18,20)(H,22,23)/t9-,10-,11+,14-/m1/s1",-1.539016442,CC1(C)SC2C(NC(=O)C([NH3+])C3=CC=CC=C3)C(=O)N2C1C([O-])=O,0,G1,A,mono-constituent,None,Zwitterion
A-1878,"InChI=1S/C13H14N2/c14-12-5-1-10(2-6-12)9-11-3-7-13(15)8-4-11/h1-8H,9,14-15H2",-2.292933442,NC1=CC=C(CC2=CC=C(N)C=C2)C=C1,0,G1,A,mono-constituent,Cosolvent Buffer,Uncharged
A-1879,"InChI=1S/C14H19NO/c1-5-16-11-6-7-13-12(8-11)10(2)9-14(3,4)15-13/h6-9,15H,5H2,1-4H3",-3.332762335,CCOC1=CC=C2NC(C)(C)C=C(C)C2=C1,0.174138777,G5,A,mono-constituent,None,Uncharged
A-1881,"InChI=1S/C9H18O/c1-2-3-4-5-6-7-8-9-10/h9H,2-8H2,1H3",-3.148706476,CCCCCCCCC=O,0.016675651,G5,A,mono-constituent,Non Valid pH,Uncharged
A-1884,"InChI=1S/C5H7NO/c6-4-5-2-1-3-7-5/h1-3H,4,6H2",1.012704742,[NH3+]CC1=CC=CO1,0,G1,A,mono-constituent,None,Positive
A-1885,"InChI=1S/C2H3F3O/c3-2(4,5)1-6/h6H,1H2",0.999830658,OCC(F)(F)F,0,G1,A,mono-constituent,None,Uncharged
A-1886,InChI=1S/C5H15O5Si5/c1-11-6-12(2)8-14(4)10-15(5)9-13(3)7-11/h1-5H3,0.52929557,C[Si]1O[Si](C)O[Si](C)O[Si](C)O[Si](C)O1,0,G1,A,mono-constituent,Prediction Estimation,Uncharged
A-1887,"InChI=1S/C8H16O4/c1-3-10-4-5-11-6-7-12-8(2)9/h3-7H2,1-2H3",0.75396452,CCOCCOCCOC(C)=O,0,G1,A,mono-constituent,None,Uncharged
A-1890,"InChI=1S/C11H18O3Si/c1-8-15(12-9(2)3,13-10(4)5)14-11(6)7/h8H,1-2,4,6H2,3,5,7H3",0.645223339,CC(=C)O[Si](OC(C)=C)(OC(C)=C)C=C,0,G1,A,None,None,Uncharged
A-1892,"InChI=1S/C4H10O2/c5-3-1-2-4-6/h5-6H,1-4H2",1.045169179,OCCCCO,0.5,G3,A,mono-constituent,None,Uncharged
A-1893,"InChI=1S/C6H18O3Si3/c1-10(2)7-11(3,4)9-12(5,6)8-10/h1-6H3",0.652738306,C[Si]1(C)O[Si](C)(C)O[Si](C)(C)O1,2.897940009,G2,A,mono-constituent,None,Uncharged
A-1896,"InChI=1S/C3H8O3/c4-1-3(6)2-5/h3-6H,1-2H2",1.035768664,OCC(O)CO,0.146345139,G5,A,mono-constituent,None,Uncharged
A-1898,"InChI=1S/C8H20N.BrH/c1-5-9(6-2,7-3)8-4;/h5-8H2,1-4H3;1H/q+1;/p-1",0.677452007,CC[N+](CC)(CC)CC,0,G1,A,mono-constituent,None,Positive
A-1899,"InChI=1S/C8H20N.ClH/c1-5-9(6-2,7-3)8-4;/h5-8H2,1-4H3;1H/q+1;/p-1",0.780656524,CC[N+](CC)(CC)CC,0,G1,A,mono-constituent,None,Positive