ID,InChI,Solubility,SMILEScurated,SD,Group,Dataset,Composition,Error,Charge
A-3539,"InChI=1S/C6H11ClO/c1-6(8)4-2-3-5-7/h2-5H2,1H3",-1.415573876,CC(=O)CCCCCl,0,G1,A,None,None,Uncharged
A-3540,"InChI=1S/C10H10N2O4S/c1-7-6-10(13)12(11-7)8-2-4-9(5-3-8)17(14,15)16/h2-5H,6H2,1H3,(H,14,15,16)",-1.692640297,CC1=CC(=O)N(N1)C1=CC=C(C=C1)S([O-])(=O)=O,0,G1,A,None,None,Negative
A-3542,"InChI=1S/C7H9NO2S/c1-6-4-2-3-5-7(6)11(8,9)10/h2-5H,1H3,(H2,8,9,10)",-1.525986853,CC1=CC=CC=C1S(N)(=O)=O,0.251725097,G3,A,None,None,Uncharged
A-3543,"InChI=1S/C6H12N4O2/c1-3-2-4(9-5(7)11)10-6(12)8-3/h3-4H,2H2,1H3,(H3,7,9,11)(H2,8,10,12)",-1.531423432,CC1CC(NC(N)=O)NC(=O)N1,0,G1,A,None,Non Valid pH,Uncharged
A-3544,"InChI=1S/C7H10N2.H2O4S/c1-5-4-6(8)2-3-7(5)9;1-5(2,3)4/h2-4H,8-9H2,1H3;(H2,1,2,3,4)",-1.641347932,CC1=CC(N)=CC=C1N,0,G1,A,None,Cosolvent Buffer,Uncharged
A-3547,"InChI=1S/C7H6F3N/c8-7(9,10)5-2-1-3-6(11)4-5/h1-4H,11H2",-1.508195621,NC1=CC=CC(=C1)C(F)(F)F,0.033163724,G5,A,None,Non Valid pH,Uncharged
A-3548,"InChI=1S/C13H26N2/c14-12-5-1-10(2-6-12)9-11-3-7-13(15)8-4-11/h10-13H,1-9,14-15H2",-1.62400348,[NH3+]C1CCC(CC2CCC([NH3+])CC2)CC1,0.211547231,G5,A,None,None,Positive
A-3549,"InChI=1S/C10H13NO3/c1-7(12)11-9-6-8(13-2)4-5-10(9)14-3/h4-6H,1-3H3,(H,11,12)",-1.591549855,COC1=CC=C(OC)C(NC(C)=O)=C1,0,G1,A,None,Non Valid pH,Uncharged
A-3551,"InChI=1S/C9H12O3S.K/c1-7(2)8-3-5-9(6-4-8)13(10,11)12;/h3-7H,1-2H3,(H,10,11,12);/q;+1/p-1",0.320887212,CC(C)C1=CC=C(C=C1)S([O-])(=O)=O,0,G1,A,None,None,Negative
A-3552,"InChI=1S/CH3NO2.H3N.H2O/c2-1(3)4;;/h2H2,(H,3,4);1H3;1H2",0.711593998,NC([O-])=O,0,G1,A,None,None,Negative
A-3553,"InChI=1S/C9H12O3S.Na/c1-7(2)8-3-5-9(6-4-8)13(10,11)12;/h3-7H,1-2H3,(H,10,11,12);/q;+1/p-1",0.346022737,CC(C)C1=CC=C(C=C1)S([O-])(=O)=O,0,G1,A,None,None,Negative
A-3555,"InChI=1S/C17H34N2O.CH4O4S/c1-5-6-7-8-9-10-11-12-14-17(20)18-15-13-16-19(2,3)4;1-5-6(2,3)4/h5H,1,6-16H2,2-4H3;1H3,(H,2,3,4)",0.094063213,C[N+](C)(C)CCCNC(=O)CCCCCCCCC=C,0,G1,A,None,Cosolvent Buffer,Positive
A-3557,InChI=1S/B4O7.2Na.10H2O/c5-1-9-3(7)11-4(8)10-2-6;;;;;;;;;;;;/h;;;10*1H2/q-2;2*+1;;;;;;;;;;,-0.884641885,O=BO[B-](=O)O[B-](=O)OB=O,0,G1,A,None,None,Negative
A-3558,"InChI=1S/C5H6N2O/c6-5-4(8)2-1-3-7-5/h1-3,8H,(H2,6,7)",-0.346106152,NC1=NC=CC=C1O,0,G1,A,None,None,Uncharged
A-3560,"InChI=1S/C8H13NO/c1-2-9-7-5-3-4-6-8(9)10/h2H,1,3-7H2",-0.450786076,C=CN1CCCCCC1=O,0,G1,A,None,None,Uncharged
A-3561,"InChI=1S/C7H10O3/c1-6(5-8)3-4-10-7(2)9/h3,5H,4H2,1-2H3/b6-3+",-0.460793982,CC(=O)OCC=C(C)C=O,0,G1,A,None,None,Uncharged
A-3562,InChI=1S/BH3O3/c2-1(3)4/h2-4H,-0.099255215,OB(O)O,0.053869892,G5,A,None,None,Uncharged
A-3563,InChI=1S/2BO3.3Ca/c2*2-1(3)4;;;/q2*-3;3*+2,-0.684341705,OB(O)O,0.053869892,G5,A,None,None,Uncharged
A-3564,InChI=1S/BH3O3.K/c2-1(3)4;/h2-4H;,-0.312059473,OB(O)O,0.053869892,G5,A,None,None,Uncharged
A-3566,"InChI=1S/C6H12O4/c1-2-6(3-7,4-8)5(9)10/h7-8H,2-4H2,1H3,(H,9,10)",0.516803854,CCC(CO)(CO)C([O-])=O,0,G1,A,None,Non Valid pH,Negative
A-3567,InChI=1S/2NO3.Pb/c2*2-1(3)4;/q2*-1;+2,0.166535451,[O-][N+]([O-])=O,0,G1,A,None,None,Negative
A-3569,"InChI=1S/C10H18N2O7.3Na/c13-4-3-11(5-8(14)15)1-2-12(6-9(16)17)7-10(18)19;;;/h13H,1-7H2,(H,14,15)(H,16,17)(H,18,19);;;/q;3*+1/p-3",0.144421539,OCC[NH+](CCN(CC([O-])=O)CC([O-])=O)CC([O-])=O,0.008864383,G3,A,None,None,Zwitterion
A-3577,"InChI=1S/C40H44N12O10S2.2Na/c53-21-17-51(18-22-54)39-47-35(41-29-7-3-1-4-8-29)45-37(49-39)43-31-15-13-27(33(25-31)63(57,58)59)11-12-28-14-16-32(26-34(28)64(60,61)62)44-38-46-36(42-30-9-5-2-6-10-30)48-40(50-38)52(19-23-55)20-24-56;;/h1-16,25-26,53-56H,17-24H2,(H,57,58,59)(H,60,61,62)(H2,41,43,45,47,49)(H2,42,44,46,48,50);;/q;2*+1/p-2/b12-11+;;",-1.29966008,OCCN(CCO)C1=NC(NC2=CC=C(C=CC3=CC=C(NC4=NC(=NC(NC5=CC=CC=C5)=N4)N(CCO)CCO)C=C3S([O-])(=O)=O)C(=C2)S([O-])(=O)=O)=NC(NC2=CC=CC=C2)=N1,0,G1,A,None,None,Negative
A-3578,"InChI=1S/2C3H6O3.Zn/c2*1-2(4)3(5)6;/h2*2,4H,1H3,(H,5,6);/q;;+2/p-2",-0.70350543,CC(O)C([O-])=O,0.230147285,G3,A,None,None,Negative
A-3582,"InChI=1S/C5H10O2/c1-4(2)3-5(6)7/h4H,3H2,1-2H3,(H,6,7)",-0.327924852,CC(C)CC([O-])=O,0.035837574,G3,A,None,None,Negative
A-3594,"InChI=1S/C6H8O7.3Li.4H2O/c7-3(8)1-6(13,5(11)12)2-4(9)10;;;;;;;/h13H,1-2H2,(H,7,8)(H,9,10)(H,11,12);;;;4*1H2/q;3*+1;;;;/p-3",0.221876471,OC(CC([O-])=O)(CC([O-])=O)C([O-])=O,0,G1,A,None,None,Negative
A-3596,"InChI=1S/C24H29N5O3/c1-4-5-10-21(30)29(22(16(2)3)24(31)32)15-17-11-13-18(14-12-17)19-8-6-7-9-20(19)23-25-27-28-26-23/h6-9,11-14,16,22H,4-5,10,15H2,1-3H3,(H,31,32)(H,25,26,27,28)/t22-/m0/s1",-2.735926094,CCCCC(=O)N(CC1=CC=C(C=C1)C1=CC=CC=C1C1=NN=N[N-]1)C(C(C)C)C([O-])=O,0,G1,A,None,Cosolvent Buffer,Negative
A-3599,"InChI=1S/C10H15NO2/c12-8-6-11(7-9-13)10-4-2-1-3-5-10/h1-5,12-13H,6-9H2",-0.583380931,OCCN(CCO)C1=CC=CC=C1,0.076073742,G5,A,None,None,Uncharged
A-3601,"InChI=1S/C4H8O3/c1-3-7-4(5)6-2/h3H2,1-2H3",-0.344450681,CCOC(=O)OC,0,G1,A,None,None,Uncharged
A-3602,InChI=1S/2ClH.Mg/h2*1H;/q;;+2/p-2,0.692207827,[Mg++].[Cl-].[Cl-],0,G1,A,None,None,Negative
A-3603,"InChI=1S/C6H16N2.C6H10O4/c7-5-3-1-2-4-6-8;7-5(8)3-1-2-4-6(9)10/h1-8H2;1-4H2,(H,7,8)(H,9,10)",0.251364785,[O-]C(=O)CCCCC([O-])=O,0,G1,A,None,Cosolvent Buffer,Negative
A-3605,"InChI=1S/H2O4S.O.V/c1-5(2,3)4;;/h(H2,1,2,3,4);;/q;;+2/p-2",0.457118619,O=[V++].[O-]S([O-])(=O)=O,0,G1,A,None,Cosolvent Buffer,Negative
A-3606,"InChI=1S/ClHO4.Li.3H2O/c2-1(3,4)5;;;;/h(H,2,3,4,5);;3*1H2/q;+1;;;/p-1",0.461218862,[O-][Cl](=O)(=O)=O,0,G1,A,None,None,Negative
A-3608,"InChI=1S/C4HF9O3S.K/c5-1(6,3(9,10)11)2(7,8)4(12,13)17(14,15)16;/h(H,14,15,16);/q;+1/p-1",-0.864516218,[O-]S(=O)(=O)C(F)(F)C(F)(F)C(F)(F)C(F)(F)F,0.031745046,G5,A,None,None,Negative
A-3609,"InChI=1S/C19H23N4O2S.ClH/c1-4-23(11-12-24)15-7-5-14(6-8-15)20-21-19-22(2)17-10-9-16(25-3)13-18(17)26-19;/h5-10,13,24H,4,11-12H2,1-3H3;1H/q+1;/p-1",-0.946771482,CCN(CCO)C1=CC=C(C=C1)N=NC1=[N+](C)C2=CC=C(OC)C=C2S1,0,G1,A,None,None,Positive
A-3610,"InChI=1S/C19H23N4O2S.CH4O4S/c1-4-23(11-12-24)15-7-5-14(6-8-15)20-21-19-22(2)17-10-9-16(25-3)13-18(17)26-19;1-5-6(2,3)4/h5-10,13,24H,4,11-12H2,1-3H3;1H3,(H,2,3,4)/q+1;/p-1",-1.020815087,COS([O-])(=O)=O.CCN(CCO)C1=CC=C(C=C1)N=NC1=[N+](C)C2=CC=C(OC)C=C2S1,0,G1,A,None,Cosolvent Buffer,Zwitterion
A-3611,"InChI=1S/C6H12O3/c1-2-3-4-9-6(8)5-7/h7H,2-5H2,1H3",-0.458338912,CCCCOC(=O)CO,0,G1,A,None,None,Uncharged
A-3612,"InChI=1S/C3H5ClO2/c1-6-3(5)2-4/h2H2,1H3",-0.372767961,COC(=O)CCl,0,G1,A,None,None,Uncharged
A-3613,InChI=1S/Cd.2ClH/h;2*1H/q+2;;/p-2,0.39671109,[Cl-].[Cl-].[Cd++],0,G1,A,None,None,Negative
A-3614,"InChI=1S/C2H5BrO3S.Na/c3-1-2-7(4,5)6;/h1-2H2,(H,4,5,6);/q;+1/p-1",0.332748699,[O-]S(=O)(=O)CCBr,0,G1,A,None,None,Negative
A-3615,"InChI=1S/C6H6O2/c7-5-3-1-2-4-6(5)8/h1-4,7-8H",0.612341891,OC1=CC=CC=C1O,0.056118153,G3,A,None,None,Uncharged
A-3616,"InChI=1S/C4H11NO/c1-3-5(6)4-2/h6H,3-4H2,1-2H3",0.70363191,CCN(O)CC,0.05587066,G3,A,None,None,Uncharged
A-3617,"InChI=1S/2CH5N3.CH2O3/c3*2-1(3)4/h2*(H5,2,3,4);(H2,2,3,4)",0.397534856,NC(N)=[NH2+],0,G1,A,None,Multi-constituent Substances,Positive
A-3618,"InChI=1S/C2H4O2.Li/c1-2(3)4;/h1H3,(H,3,4);/q;+1/p-1",0.833767293,CC([O-])=O,0.124852105,G5,A,None,None,Negative
A-3621,"InChI=1S/C10H14O6/c1-7(2)10(14)16-6-5-15-9(13)4-3-8(11)12/h1,3-6H2,2H3,(H,11,12)",-0.706708916,CC(=C)C(=O)OCCOC(=O)CCC([O-])=O,0,G1,A,None,None,Negative
A-3622,"InChI=1S/C21H21ClN2O8.ClH/c1-24(2)14-7-5-6-10(16(27)12-9(25)4-3-8(22)11(12)15(6)26)18(29)21(7,32)19(30)13(17(14)28)20(23)31;/h3-4,6-7,14-15,25-27,31-32H,5,23H2,1-2H3;1H/b20-13-;/t6-,7-,14-,15-,21-;/m0./s1",-1.046901651,CN(C)C1C2CC3C(O)C4=C(Cl)C=CC([O-])=C4C(=O)C3=C(O)C2(O)C(=O)C(C(N)=O)C1=O,0,G1,A,None,None,Negative
A-3623,"InChI=1S/C5H10O2/c1-3-4(2)5(6)7/h4H,3H2,1-2H3,(H,6,7)",-0.355953575,CCC(C)C([O-])=O,0,G1,A,None,Non Valid pH,Negative
A-3625,"InChI=1S/2Fe.3H2O4S/c;;3*1-5(2,3)4/h;;3*(H2,1,2,3,4)/q2*+3;;;/p-6",1.041524079,[O-]S([O-])(=O)=O,0,G1,A,None,None,Negative
A-3629,InChI=1S/2BrH.Zn/h2*1H;/q;;+2/p-2,1.297742994,[Br-],0,G1,A,None,None,Negative
A-3631,"InChI=1S/2C19H13ClN8O10S2.Cr.5Na/c2*20-17-23-18(21)25-19(24-17)22-11-6-9(39(33,34)35)3-7-4-13(40(36,37)38)15(16(30)14(7)11)27-26-10-5-8(28(31)32)1-2-12(10)29;;;;;;/h2*1-6,29-30H,(H,33,34,35)(H,36,37,38)(H3,21,22,23,24,25);;;;;;/q;;+3;5*+1/p-8",-0.494975175,NC1=NC(Cl)=NC(NC2=CC(=CC3=CC(=C(N=NC4=CC(=CC=C4O)[N+]([O-])=O)C([O-])=C23)S([O-])(=O)=O)S([O-])(=O)=O)=N1,0,G1,A,None,None,Negative
A-3636,"InChI=1S/C10H13NO6S.Na/c1-8-3-4-10(9(7-8)11(12)13)17-5-2-6-18(14,15)16;/h3-4,7H,2,5-6H2,1H3,(H,14,15,16);/q;+1/p-1",0.170310359,CC1=CC=C(OCCCS([O-])(=O)=O)C(=C1)[N+]([O-])=O,0,G1,A,None,None,Negative
A-3639,"InChI=1S/2C11H18N2O.2ClH/c2*1-2-3-6-9-12-10(14)11(13-9)7-4-5-8-11;;/h2*2-8H2,1H3,(H,12,13,14);2*1H",-1.019613944,CCCCC1=NC2(CCCC2)C(=O)N1,0,G1,A,None,None,Uncharged
A-3640,"InChI=1S/C27H22ClN7O10S3.3Na/c1-2-35(16-8-4-3-5-9-16)27-31-25(28)30-26(32-27)29-19-14-17(46(37,38)39)12-15-13-21(48(43,44)45)23(24(36)22(15)19)34-33-18-10-6-7-11-20(18)47(40,41)42;;;/h3-14,33H,2H2,1H3,(H,37,38,39)(H,40,41,42)(H,43,44,45)(H,29,30,31,32);;;/q;3*+1/p-3/b34-23+;;;",-0.266745284,CCN(C1=CC=CC=C1)C1=NC(Cl)=NC(NC2=CC(=CC3=C2C(=O)C(=NNC2=CC=CC=C2S([O-])(=O)=O)C(=C3)S([O-])(=O)=O)S([O-])(=O)=O)=N1,0,G1,A,None,None,Negative
A-3641,InChI=1S/2ClH.Zn/h2*1H;/q;;+2/p-2,0.501000636,[Cl-].[Cl-].[Zn++],0.147222907,G3,A,None,None,Negative
A-3642,"InChI=1S/C10H14N2O5/c1-5-3-12(10(16)11-9(5)15)8-2-6(14)7(4-13)17-8/h3,6-8,13-14H,2,4H2,1H3,(H,11,15,16)",-0.742062088,CC1=CN(C2CC(O)C(CO)O2)C(=O)NC1=O,0,G1,A,None,None,Uncharged
A-3646,"InChI=1S/C23H29N2.C2H4O2/c1-6-25(7-2)19-15-12-18(13-16-19)14-17-22-23(3,4)20-10-8-9-11-21(20)24(22)5;1-2(3)4/h8-17H,6-7H2,1-5H3;1H3,(H,3,4)/q+1;/p-1",-0.960418782,CC([O-])=O.CCN(CC)C1=CC=C(C=CC2=[N+](C)C3=CC=CC=C3C2(C)C)C=C1,0,G1,A,None,Cosolvent Buffer,Zwitterion
A-3647,"InChI=1S/C23H29N2.H3O4P/c1-6-25(7-2)19-15-12-18(13-16-19)14-17-22-23(3,4)20-10-8-9-11-21(20)24(22)5;1-5(2,3)4/h8-17H,6-7H2,1-5H3;(H3,1,2,3,4)/q+1;/p-1",-1.000489568,OP([O-])([O-])=O.CCN(CC)C1=CC=C(C=CC2=[N+](C)C3=CC=CC=C3C2(C)C)C=C1,0,G1,A,None,Cosolvent Buffer,Zwitterion
A-3648,"InChI=1S/C23H16O6.Na/c24-20-16(14-7-3-1-5-12(14)9-18(20)22(26)27)11-17-15-8-4-2-6-13(15)10-19(21(17)25)23(28)29;/h1-10,24-25H,11H2,(H,26,27)(H,28,29);",-0.980758883,OC1=C(CC2=C(O)C(=CC3=CC=CC=C23)C([O-])=O)C2=CC=CC=C2C=C1C([O-])=O,0,G1,A,None,None,Negative
A-3650,"InChI=1S/C4H6O6.2H3N/c5-1(3(7)8)2(6)4(9)10;;/h1-2,5-6H,(H,7,8)(H,9,10);2*1H3/t1-,2-;;/m1../s1",0.366276763,OC(C(O)C([O-])=O)C([O-])=O,0,G1,A,None,None,Negative
A-3651,"InChI=1S/C6H10N4/c1-4-9-3-5(2-7)6(8)10-4/h3H,2,7H2,1H3,(H2,8,9,10)",0.490306563,CC1=NC=C(C[NH3+])C(N)=N1,0,G1,A,None,None,Positive
A-3652,InChI=1S/Mn.2NO3/c;2*2-1(3)4/q+2;2*-1,1.377095201,[O-][N+]([O-])=O,0,G1,A,None,None,Negative
A-3653,"InChI=1S/C10H25N3/c1-12(2)9-5-7-11-8-6-10-13(3)4/h11H,5-10H2,1-4H3",0.355850804,CN(C)CCC[NH2+]CCC[NH+](C)C,0.156276894,G3,A,None,None,Positive
A-3654,"InChI=1S/C8H12N2O2.2ClH/c9-6-1-2-8(7(10)5-6)12-4-3-11;;/h1-2,5,11H,3-4,9-10H2;2*1H",0.246159297,NC1=CC=C(OCCO)C(N)=C1,0,G1,A,None,None,Uncharged
A-3655,"InChI=1S/C6H8O7.3Na/c7-3(8)1-6(13,5(11)12)2-4(9)10;;;/h13H,1-2H2,(H,7,8)(H,9,10)(H,11,12);;;/q;3*+1/p-3",0.216653091,OC(CC([O-])=O)(CC([O-])=O)C([O-])=O,0.097868452,G3,A,None,None,Negative
A-3657,InChI=1S/Al.3NO3.9H2O/c;3*2-1(3)4;;;;;;;;;/h;;;;9*1H2/q+3;3*-1;;;;;;;;;,-0.940813194,[O-][N+]([O-])=O,0,G1,A,None,None,Negative
A-3658,InChI=1S/FH.Na/h1H;/q;+1/p-1,-0.002187262,[F-],0,G1,A,None,None,Negative
A-3661,"InChI=1S/C8H11N/c1-7(9)8-5-3-2-4-6-8/h2-7H,9H2,1H3/t7-/m0/s1",-0.460192409,CC([NH3+])C1=CC=CC=C1,0,G1,A,None,None,Positive
A-3665,"InChI=1S/C8H8O3.Na/c1-11-8(10)6-2-4-7(9)5-3-6;/h2-5,9H,1H3;/q;+1/p-1",0.380300188,COC(=O)C1=CC=C(O)C=C1,0,G1,A,None,Non Valid pH,Uncharged
A-3666,"InChI=1S/C5H9NO4.Na/c6-3(5(9)10)1-2-4(7)8;/h3H,1-2,6H2,(H,7,8)(H,9,10);/q;+1/p-1",0.391961629,[NH3+]C(CCC([O-])=O)C([O-])=O,0.126118026,G5,A,None,None,Zwitterion
A-3667,InChI=1S/N3.Na/c1-3-2;/q-1;+1,0.804013495,[N-]=[N+]=[N-],0,G1,A,None,None,Negative
A-3668,"InChI=1S/C10H16N2O8.Mn.2Na/c13-7(14)3-11(4-8(15)16)1-2-12(5-9(17)18)6-10(19)20;;;/h1-6H2,(H,13,14)(H,15,16)(H,17,18)(H,19,20);;;/q;+2;2*+1/p-4",0.024802502,[O-]C(=O)CN(CCN(CC([O-])=O)CC([O-])=O)CC([O-])=O,0,G1,A,None,None,Negative
A-3671,"InChI=1S/C2H2O4.2H3N/c3-1(4)2(5)6;;/h(H,3,4)(H,5,6);2*1H3",-0.472581501,[O-]C(=O)C([O-])=O,0.136056158,G5,A,None,None,Negative
A-3673,"InChI=1S/C5H10N2O3/c6-3(5(9)10)1-2-4(7)8/h3H,1-2,6H2,(H2,7,8)(H,9,10)/t3-/m0/s1",-0.548311419,NC(=O)CCC([NH3+])C([O-])=O,0.031782032,G3,A,None,None,Zwitterion
A-3674,"InChI=1S/C6H13NO2/c1-3-4(2)5(7)6(8)9/h4-5H,3,7H2,1-2H3,(H,8,9)/t4-,5-/m0/s1",-0.502953857,CCC(C)C([NH3+])C([O-])=O,0.041709149,G3,A,None,None,Zwitterion
A-3675,"InChI=1S/C9H11NO3.ClH/c11-4-3-10-7-1-2-8-9(5-7)13-6-12-8;/h1-2,5,10-11H,3-4,6H2;1H",0.272897501,OCCNC1=CC=C2OCOC2=C1,0,G1,A,None,None,Uncharged
A-3678,InChI=1S/C4H2O3/c5-3-1-2-4(6)7-3/h1-2H,0.618115807,O=C1OC(=O)C=C1,0.005790936,G3,A,None,Unstable,Uncharged
A-3683,"InChI=1S/CH2O3.2Na/c2-1(3)4;;/h(H2,2,3,4);;/q;2*+1/p-2",0.581124668,OC([O-])=O,0.139511215,G3,A,None,None,Negative
A-3685,"InChI=1S/C29H28N10O9S2.2Na/c40-13-11-30-27-33-28(31-12-14-41)35-29(34-27)32-21-7-10-23-17(15-21)16-24(50(46,47)48)25(26(23)42)39-38-19-3-1-18(2-4-19)36-37-20-5-8-22(9-6-20)49(43,44)45;;/h1-10,15-16,38,40-41H,11-14H2,(H,43,44,45)(H,46,47,48)(H3,30,31,32,33,34,35);;/q;2*+1/p-2/b37-36?,39-25-;;",-0.28369802,OCCNC1=NC(NC2=CC=C3C(=C2)C=C(C(=NNC2=CC=C(C=C2)N=NC2=CC=C(C=C2)S([O-])(=O)=O)C3=O)S([O-])(=O)=O)=NC(NCCO)=[NH+]1,0,G1,A,None,Wrong Ionization,Zwitterion
A-3687,"InChI=1S/C3H6O/c1-3-2-4-3/h3H,2H2,1H3/t3-/m0/s1",0.838033384,CC1CO1,0,G1,A,None,None,Uncharged
A-3688,"InChI=1S/C28H20N4O6S4.2Na/c1-15-3-13-21-23(25(15)41(33,34)35)39-27(29-21)17-5-9-19(10-6-17)31-32-20-11-7-18(8-12-20)28-30-22-14-4-16(2)26(24(22)40-28)42(36,37)38;;/h3-14H,1-2H3,(H,33,34,35)(H,36,37,38);;/q;2*+1/p-2",-1.222309624,CC1=CC=C2N=C(SC2=C1S([O-])(=O)=O)C1=CC=C(C=C1)N=NC1=CC=C(C=C1)C1=NC2=CC=C(C)C(=C2S1)S([O-])(=O)=O,0,G1,A,None,None,Negative
A-3690,"InChI=1S/C13H28O4/c1-4-15-7-5-6-13(3)17-9-8-16-11-12(2)10-14/h12-14H,4-11H2,1-3H3",-0.790860844,CCOCCCC(C)OCCOCC(C)CO,0,G1,A,None,None,Uncharged
A-3691,"InChI=1S/C8H11N/c1-7(9)8-5-3-2-4-6-8/h2-7H,9H2,1H3",-0.481381708,CC([NH3+])C1=CC=CC=C1,0.010594649,G3,A,None,None,Positive
A-3692,"InChI=1S/C10H16N2O8.2K.Zn/c13-7(14)3-11(4-8(15)16)1-2-12(5-9(17)18)6-10(19)20;;;/h1-6H2,(H,13,14)(H,15,16)(H,17,18)(H,19,20);;;/q;2*+1;+2/p-4",0.237458201,[O-]C(=O)CN(CCN(CC([O-])=O)CC([O-])=O)CC([O-])=O,0,G1,A,None,None,Negative
A-3694,"InChI=1S/C10H17NO4/c1-3-5-6-11-10(13)15-8-7-14-9(12)4-2/h4H,2-3,5-8H2,1H3,(H,11,13)",-1.634840597,CCCCNC(=O)OCCOC(=O)C=C,0,G1,A,None,None,Uncharged
A-3696,"InChI=1S/C6H7ClN2.ClH/c7-5-1-3-6(9-8)4-2-5;/h1-4,9H,8H2;1H",-1.563665466,NNC1=CC=C(Cl)C=C1,0,G1,A,None,None,Uncharged
A-3700,"InChI=1S/C8H11N/c1-6-3-7(2)5-8(9)4-6/h3-5H,9H2,1-2H3",-1.402200462,CC1=CC(N)=CC(C)=C1,0,G1,A,None,None,Uncharged
A-3701,"InChI=1S/2C16H13N3O4S.Co.Na/c2*17-24(22,23)11-6-8-14(20)13(9-11)18-19-16-12-4-2-1-3-10(12)5-7-15(16)21;;/h2*1-9,20-21H,(H2,17,22,23);;/q;;+3;+1/p-4",-2.202203848,NS(=O)(=O)C1=CC=C([O-])C(=C1)N=NC1=C(O)C=CC2=CC=CC=C12,0,G1,A,None,None,Negative
A-3702,"InChI=1S/C10H15NO/c1-9(2)4-8(12)5-10(3,6-9)7-11/h4-6H2,1-3H3",-1.54049772,CC1(C)CC(=O)CC(C)(C1)C#N,0.00673727,G3,A,None,None,Uncharged
A-3703,"InChI=1S/C11H14ClNO.ClH/c12-10-3-1-9(2-4-10)11(14)5-7-13-8-6-11;/h1-4,13-14H,5-8H2;1H",-1.720777531,OC1(CC[NH2+]CC1)C1=CC=C(Cl)C=C1,0,G1,A,None,None,Positive
A-3706,"InChI=1S/C8H9NO2/c9-7(8(10)11)6-4-2-1-3-5-6/h1-5,7H,9H2,(H,10,11)/t7-/m1/s1",-1.508278406,[NH3+]C(C([O-])=O)C1=CC=CC=C1,0,G1,A,None,None,Zwitterion
A-3708,"InChI=1S/C8H19N.C8H19O3PS/c1-2-3-4-5-6-7-8-9;1-3-5-7-10-12(9,13)11-8-6-4-2/h2-9H2,1H3;3-8H2,1-2H3,(H,9,13)",-1.879697302,CCCCOP([S-])(=O)OCCCC,0.007731713,G3,A,None,Cosolvent Buffer,Negative
A-3712,"InChI=1S/C10H19N5O2/c1-6(2)7-13-15(9(17)14(7)11)8(16)12-10(3,4)5/h6H,11H2,1-5H3,(H,12,16)",-1.718847397,CC(C)C1=NN(C(=O)NC(C)(C)C)C(=O)N1N,0.008861832,G5,A,None,None,Uncharged
A-3713,"InChI=1S/C10H12O2/c1-8(11)2-3-9-4-6-10(12)7-5-9/h4-7,12H,2-3H2,1H3",-1.552040941,CC(=O)CCC1=CC=C(O)C=C1,0,G1,A,None,None,Uncharged
A-3714,InChI=1S/CHCl3/c2-1(3)4/h1H/i1D,-1.417811305,ClC(Cl)Cl,0,G1,A,None,None,Uncharged
A-3716,"InChI=1S/C6H4Cl2N2O2/c7-3-1-2(9)4(8)5(10-3)6(11)12/h1H,(H2,9,10)(H,11,12)",-0.004250052,NC1=CC(Cl)=NC(C([O-])=O)=C1Cl,0.007291,G3,A,None,None,Negative
A-3720,"InChI=1S/C12H19N3O5/c16-6-3-13-11-2-1-10(9-12(11)15(19)20)14(4-7-17)5-8-18/h1-2,9,13,16-18H,3-8H2",-1.795385572,OCCNC1=CC=C(C=C1[N+]([O-])=O)N(CCO)CCO,0,G1,A,None,None,PureChargeSeparation
A-3721,InChI=1S/Al.FH.K/h;1H;/q+3;;+1/p-1,-1.269901072,[F-],0,G1,A,None,None,Negative
A-3723,"InChI=1S/3C4H9O.Al/c3*1-2-3-4-5;/h3*2-4H2,1H3;/q3*-1;+3",-1.737335476,CCCCO,0.106708547,G5,A,None,None,Uncharged
A-3725,"InChI=1S/C6H4Cl2O/c7-4-1-2-6(9)5(8)3-4/h1-3,9H",-1.558983084,OC1=CC=C(Cl)C=C1Cl,0.018491783,G3,A,None,None,Uncharged
A-3730,"InChI=1S/C43H30N8O14S4.4Na/c44-34-13-7-26(20-39(34)68(60,61)62)46-47-37-16-14-35(30-11-8-27(21-32(30)37)66(54,55)56)48-49-38-17-15-36(31-12-9-28(22-33(31)38)67(57,58)59)50-51-41-40(69(63,64)65)19-24-18-25(6-10-29(24)42(41)52)45-43(53)23-4-2-1-3-5-23;;;;/h1-22,50H,44H2,(H,45,53)(H,54,55,56)(H,57,58,59)(H,60,61,62)(H,63,64,65);;;;/q;4*+1/p-4/b47-46?,49-48?,51-41+;;;;",-2.393595358,NC1=CC=C(C=C1S([O-])(=O)=O)N=NC1=CC=C(N=NC2=CC=C(NN=C3C(=O)C4=CC=C(NC(=O)C5=CC=CC=C5)C=C4C=C3S([O-])(=O)=O)C3=CC=C(C=C23)S([O-])(=O)=O)C2=CC=C(C=C12)S([O-])(=O)=O,0.334083782,G3,A,None,None,Negative
A-3733,"InChI=1S/C6H10O2/c1-5(2)4-6(7)8-3/h4H,1-3H3",-1.414000411,COC(=O)C=C(C)C,0,G1,A,None,None,Uncharged
A-3735,"InChI=1S/C50H38N12O18S4.5Na/c1-24-14-36(41(80-2)23-35(24)59-61-38-21-32(82(71,72)73)15-25-16-33(83(74,75)76)22-40(64)43(25)38)60-62-45-42(84(77,78)79)18-26-17-31(81(68,69)70)20-37(44(26)46(45)65)53-50-55-48(51-27-6-4-3-5-7-27)54-49(56-50)52-28-8-10-29(11-9-28)57-58-30-12-13-39(63)34(19-30)47(66)67;;;;;/h3-23,63-65H,1-2H3,(H,66,67)(H,68,69,70)(H,71,72,73)(H,74,75,76)(H,77,78,79)(H3,51,52,53,54,55,56);;;;;/q;5*+1/p-5",-2.483387966,COC1=CC(N=NC2=CC(=CC3=CC(=CC([O-])=C23)S([O-])(=O)=O)S([O-])(=O)=O)=C(C)C=C1NN=C1C(=O)C2=C(NC3=NC(NC4=CC=CC=C4)=NC(NC4=CC=C(C=C4)N=NC4=CC=C([O-])C(=C4)C([O-])=O)=N3)C=C(C=C2C=C1S([O-])(=O)=O)S([O-])(=O)=O,0,G1,A,None,None,Negative
A-3737,"InChI=1S/C10H10N2O4S/c1-7-5-10(13)12(11-7)8-3-2-4-9(6-8)17(14,15)16/h2-4,6H,5H2,1H3,(H,14,15,16)",-1.771821543,CC1=CC(=O)N(N1)C1=CC=CC(=C1)S([O-])(=O)=O,0,G1,A,None,None,Negative
A-3738,"InChI=1S/C7H12O2/c1-6(2)4-5-9-7(3)8/h4H,5H2,1-3H3",-1.474321317,CC(C)=CCOC(C)=O,0,G1,A,None,None,Uncharged
A-3739,"InChI=1S/C10H21NO/c1-4-5-6-7-8-9-10(12)11(2)3/h4-9H2,1-3H3",-1.600248341,CCCCCCCC(=O)N(C)C,0,G1,A,None,None,Uncharged
A-3741,"InChI=1S/C7H14O/c1-3-4-5-6-7(2)8/h3-6H2,1-2H3",-1.433338371,CCCCCC(C)=O,0.012272472,G5,A,None,None,Uncharged
A-3742,"InChI=1S/C6H12O/c1-3-4-6(2)5-7/h5-6H,3-4H2,1-2H3",-1.377449362,CCCC(C)C=O,0.007361628,G3,A,None,None,Uncharged
A-3744,"InChI=1S/C8H10O3/c9-7-5-3-1-2-4-6(5)8(10)11-7/h5-6H,1-4H2",-1.564736497,O=C1OC(=O)C2CCCCC12,0,G1,A,None,Non Valid pH,Uncharged
A-3746,"InChI=1S/C12H22O3/c1-4-7-14-10-12(6-3,9-13)11-15-8-5-2/h4-5,13H,1-2,6-11H2,3H3",-1.718248447,CCC(CO)(COCC=C)COCC=C,0,G1,A,None,None,Uncharged
A-3749,"InChI=1S/C8H19N/c1-3-5-7-9-8-6-4-2/h9H,3-8H2,1-2H3",-1.503965448,CCCC[NH2+]CCCC,0.038691697,G5,A,None,None,Positive
A-3751,"InChI=1S/C15H24O6/c1-6-14(16)20-12(4)9-18-8-11(3)19-10-13(5)21-15(17)7-2/h6-7,11-13H,1-2,8-10H2,3-5H3",-1.875569091,CC(COCC(C)OC(=O)C=C)OCC(C)OC(=O)C=C,0,G1,A,None,None,Uncharged
A-3752,"InChI=1S/C3H6O/c1-3-2-4-3/h3H,2H2,1H3/t3-/m1/s1",0.838033384,CC1CO1,0,G1,A,None,None,Uncharged
A-3754,"InChI=1S/C10H23NO/c1-3-5-7-11(9-10-12)8-6-4-2/h12H,3-10H2,1-2H3",-1.636738571,CCCC[NH+](CCO)CCCC,0,G1,A,None,None,Positive
A-3757,"InChI=1S/C6H13NO3S3.Na/c1-7(2)6(11)12-4-3-5-13(8,9)10;/h3-5H2,1-2H3,(H,8,9,10);/q;+1/p-1",0.1779036,CN(C)C(=S)SCCCS([O-])(=O)=O,0,G1,A,None,None,Negative