ID,InChI,Solubility,SMILEScurated,SD,Group,Dataset,Composition,Error,Charge
A-2638,"InChI=1S/C22H13N3O3/c26-13-23-19-7-1-16(2-8-19)22(17-3-9-20(10-4-17)24-14-27)18-5-11-21(12-6-18)25-15-28/h1-12,22H",-6.565096595,O=C=NC1=CC=C(C=C1)C(C1=CC=C(C=C1)N=C=O)C1=CC=C(C=C1)N=C=O,0,G1,A,mono-constituent,None,Uncharged
A-2639,"InChI=1S/C26H42O4/c1-21(2)15-9-5-7-13-19-29-25(27)23-17-11-12-18-24(23)26(28)30-20-14-8-6-10-16-22(3)4/h11-12,17-18,21-22H,5-10,13-16,19-20H2,1-4H3",-6.621817899,CC(C)CCCCCCOC(=O)C1=CC=CC=C1C(=O)OCCCCCCC(C)C,1.244065111,G4,A,multi-constituent,None,Uncharged
A-2641,"InChI=1S/C22H42O4/c1-5-9-13-19(7-3)17-25-21(23)15-11-12-16-22(24)26-18-20(8-4)14-10-6-2/h19-20H,5-18H2,1-4H3",-6.568874945,CCCCC(CC)COC(=O)CCCCC(=O)OCC(CC)CCCC,1.129360843,G4,A,mono-constituent,Below LoD Below LoQ,Uncharged
A-2642,"InChI=1S/C26H50O4/c1-23(2)17-11-7-5-9-15-21-29-25(27)19-13-14-20-26(28)30-22-16-10-6-8-12-18-24(3)4/h23-24H,5-22H2,1-4H3",-6.630104322,CC(C)CCCCCCCOC(=O)CCCCC(=O)OCCCCCCCC(C)C,1.678297839,G2,A,UVCB,None,Uncharged
A-2643,"InChI=1S/C24H46O4/c1-21(2)15-9-5-7-13-19-27-23(25)17-11-12-18-24(26)28-20-14-8-6-10-16-22(3)4/h21-22H,5-20H2,1-4H3",-6.600567801,CC(C)CCCCCCOC(=O)CCCCC(=O)OCCCCCCC(C)C,0.5,G3,A,UVCB,None,Uncharged
A-2644,"InChI=1S/C16H34O/c1-3-5-7-9-11-13-15-17-16-14-12-10-8-6-4-2/h3-16H2,1-2H3",-6.384616815,CCCCCCCCOCCCCCCCC,0,G1,A,mono-constituent,None,Uncharged
A-2645,"InChI=1S/C20H40O/c1-3-5-6-7-8-9-10-11-12-13-14-15-16-17-18-19-20-21-4-2/h4H,2-3,5-20H2,1H3",-6.472081819,CCCCCCCCCCCCCCCCCCOC=C,1.115680949,G2,A,mono-constituent,None,Uncharged
A-2646,"InChI=1S/C18H36O2.C5H12O6/c1-17(2)15-13-11-9-7-5-3-4-6-8-10-12-14-16-18(19)20;6-1-2(7)3(8)4(9)5(10)11/h17H,3-16H2,1-2H3,(H,19,20);2-11H,1H2/t;2-,3+,4-/m.0/s1",-6.655742376,CC(C)CCCCCCCCCCCCCCC([O-])=O,0,G1,A,UVCB,None,Negative
A-2647,"InChI=1S/C24H27NO2/c1-3-5-12-19(4-2)18-27-24(26)22(17-25)23(20-13-8-6-9-14-20)21-15-10-7-11-16-21/h6-11,13-16,19H,3-5,12,18H2,1-2H3",-6.558090281,CCCCC(CC)COC(=O)C(C#N)=C(C1=CC=CC=C1)C1=CC=CC=C1,0,G1,A,mono-constituent,None,Uncharged
A-2648,"InChI=1S/C27H32F4/c1-2-3-17-4-6-18(7-5-17)19-8-10-20(11-9-19)21-12-13-23(24(28)14-21)22-15-25(29)27(31)26(30)16-22/h12-20H,2-11H2,1H3",-6.636031296,CCCC1CCC(CC1)C1CCC(CC1)C1=CC=C(C(F)=C1)C1=CC(F)=C(F)C(F)=C1,0,G1,A,mono-constituent,None,Uncharged
A-2649,"InChI=1S/C20H42O/c1-3-5-7-9-11-12-14-16-18-20(19-21)17-15-13-10-8-6-4-2/h20-21H,3-19H2,1-2H3",-6.475024349,CCCCCCCCCCC(CO)CCCCCCCC,0,G1,A,mono-constituent,None,Uncharged
A-2650,InChI=1S/C12H6O3/c13-11-8-5-1-3-7-4-2-6-9(10(7)8)12(14)15-11/h1-6H,-6.29705325,O=C1OC(=O)C2=C3C(C=CC=C13)=CC=C2,0,G1,A,mono-constituent,None,Uncharged
A-2651,"InChI=1S/C73H108O12/c1-65(2,3)49-33-45(34-50(61(49)78)66(4,5)6)25-29-57(74)82-41-73(42-83-58(75)30-26-46-35-51(67(7,8)9)62(79)52(36-46)68(10,11)12,43-84-59(76)31-27-47-37-53(69(13,14)15)63(80)54(38-47)70(16,17)18)44-85-60(77)32-28-48-39-55(71(19,20)21)64(81)56(40-48)72(22,23)24/h33-40,78-81H,25-32,41-44H2,1-24H3",-7.07101808,CC(C)(C)C1=CC(CCC(=O)OCC(COC(=O)CCC2=CC(=C(O)C(=C2)C(C)(C)C)C(C)(C)C)(COC(=O)CCC2=CC(=C(O)C(=C2)C(C)(C)C)C(C)(C)C)COC(=O)CCC2=CC(=C(O)C(=C2)C(C)(C)C)C(C)(C)C)=CC(=C1O)C(C)(C)C,0,G1,A,mono-constituent,Below LoD Below LoQ,Uncharged
A-2652,"InChI=1S/C28H43N/c1-25(2,3)19-27(7,8)21-11-15-23(16-12-21)29-24-17-13-22(14-18-24)28(9,10)20-26(4,5)6/h11-18,29H,19-20H2,1-10H3",-6.595120185,CC(C)(C)CC(C)(C)C1=CC=C(NC2=CC=C(C=C2)C(C)(C)CC(C)(C)C)C=C1,0,G1,A,mono-constituent,None,Uncharged
A-2656,"InChI=1S/2C20H42/c1-5-8-10-12-13-14-17-19(4)20(16-7-3)18-15-11-9-6-2;1-5-8-10-12-14-15-17-19(4)20(7-3)18-16-13-11-9-6-2/h2*19-20H,5-18H2,1-4H3",-6.75213453,CCCCCCCCC(C)C(CC)CCCCCCC,0,G1,A,None,Multi-constituent Substances,Uncharged
A-2657,"InChI=1S/C40H81N3O2.C40H79N3O.2C2H4O2/c1-3-5-7-9-11-13-15-17-19-21-23-25-27-29-31-33-39(44)42-37-35-41-36-38-43-40(45)34-32-30-28-26-24-22-20-18-16-14-12-10-8-6-4-2;1-3-5-7-9-11-13-15-17-19-21-23-25-27-29-31-33-39-41-35-37-43(39)38-36-42-40(44)34-32-30-28-26-24-22-20-18-16-14-12-10-8-6-4-2;2*1-2(3)4/h41H,3-38H2,1-2H3,(H,42,44)(H,43,45);3-38H2,1-2H3,(H,42,44);2*1H3,(H,3,4)",-7.138082495,CCCCCCCCCCCCCCCCCC(=O)NCC[NH2+]CCNC(=O)CCCCCCCCCCCCCCCCC,0,G1,A,None,Multi-constituent Substances,Positive
A-2658,"InChI=1S/C27H56N2O/c1-4-5-6-7-8-9-10-11-12-13-14-15-16-17-18-19-20-21-22-24-27(30)28-25-23-26-29(2)3/h4-26H2,1-3H3,(H,28,30)",-6.628141567,CCCCCCCCCCCCCCCCCCCCCC(=O)NCCC[NH+](C)C,0.977121255,G2,A,mono-constituent,None,Positive
A-2659,"InChI=1S/C20H41O2/c1-2-3-4-5-6-7-8-9-10-11-12-13-14-15-16-17-19-22-20-18-21/h2-20H2,1H3",-6.496301265,CCCCCCCCCCCCCCCCCCOCC[O],0,G1,A,UVCB,None,Uncharged
A-2661,InChI=1S/3Mg.2HO3Si.2O3Si/c;;;4*1-4(2)3/h;;;2*1H;;/q3*+2;2*-1;2*-2,-6.578940476,[Mg++],0,G1,A,None,None,Uncharged
A-2662,"InChI=1S/C26H27O3P/c1-16-12-18(3)23(19(4)13-16)25(27)30(29,22-10-8-7-9-11-22)26(28)24-20(5)14-17(2)15-21(24)6/h7-15H,1-6H3",-6.621667442,CC1=CC(C)=C(C(=O)P(=O)(C(=O)C2=C(C)C=C(C)C=C2C)C2=CC=CC=C2)C(C)=C1,0,G1,A,mono-constituent,None,Uncharged
A-2663,InChI=1S/2Al.2Ca.5O/q2*+3;2*+2;5*-2,-6.330647093,O.O.O.O.O.[Al+3].[Al+3].[Ca++].[Ca++],0,G1,A,mono-constituent,None,Uncharged
A-2664,"InChI=1S/C8H20O2Si/c1-7(2)11(9-5,10-6)8(3)4/h7-8H,1-6H3",-6.246331133,CO[Si](OC)(C(C)C)C(C)C,0,G1,A,None,None,Uncharged
A-2665,"InChI=1S/C24H46O4/c1-3-5-7-9-11-13-15-17-19-21-23(25)27-28-24(26)22-20-18-16-14-12-10-8-6-4-2/h3-22H2,1-2H3",-6.600567801,CCCCCCCCCCCC(=O)OOC(=O)CCCCCCCCCCC,0.238560627,G3,A,mono-constituent,None,Uncharged
A-2666,"InChI=1S/C18H27ClO3/c1-4-5-6-7-8-9-12-21-18(20)15(3)22-17-11-10-16(19)13-14(17)2/h10-11,13,15H,4-9,12H2,1-3H3/t15-/m1/s1",-6.514367091,CCCCCCCCOC(=O)C(C)OC1=CC=C(Cl)C=C1C,0,G1,A,mono-constituent,Unstable,Uncharged
A-2667,InChI=1S/CN.Ag/c1-2;/q-1;+1,-6.126735167,C#N,0.979303657,G2,A,None,None,Uncharged
A-2668,InChI=1S/Ti.2H/q+2;2*-1,-5.697952564,[Ti++],0,G1,A,None,None,Uncharged
A-2669,InChI=1S/2O3Si.Ti/c2*1-4(2)3;/q2*-2;+4,-6.301101648,[Ti+4],0,G1,A,mono-constituent,None,Uncharged
A-2673,"InChI=1S/C33H62O6/c1-5-9-12-15-18-21-24-30(34)37-27-33(8-4,28-38-31(35)25-22-19-16-13-10-6-2)29-39-32(36)26-23-20-17-14-11-7-3/h5-29H2,1-4H3",-6.841087952,CCCCCCCCC(=O)OCC(CC)(COC(=O)CCCCCCCC)COC(=O)CCCCCCCC,0,G1,A,mono-constituent,None,Uncharged
A-2674,"InChI=1S/C16H26O2/c1-7-15(3,4)11-9-14(18)12(10-13(11)17)16(5,6)8-2/h9-10,17-18H,7-8H2,1-6H3",-6.495513117,CCC(C)(C)C1=CC(O)=C(C=C1O)C(C)(C)CC,0,G1,A,mono-constituent,None,Uncharged
A-2675,InChI=1S/2Fe.5O.2Sr/q2*+3;5*-2;2*+2,-6.661487316,O.O.O.O.O.[Fe+3].[Fe+3].[Sr++].[Sr++],0,G1,A,None,None,Uncharged
A-2676,InChI=1S/Zr.2H/q+2;2*-1,-6.066512278,[Zr++],0,G1,A,None,None,Uncharged
A-2677,"InChI=1S/C25H36O4/c1-22-10-11-25(28-14-15-29-25)16-17(22)4-5-18-19-6-7-21(24(3)26-12-13-27-24)23(19,2)9-8-20(18)22/h4-5,19-21H,6-16H2,1-3H3",-6.700119715,CC12CCC3C(=CC=C4CC5(CCC34C)OCCO5)C1CCC2C1(C)OCCO1,0,G1,A,mono-constituent,Non Valid pH,Uncharged
A-2678,"InChI=1S/C12H22O2/c1-8(2)11-6-5-9(3)7-12(11)14-10(4)13/h8-9,11-12H,5-7H2,1-4H3/t9-,11+,12-/m0/s1",-4.066886933,CC(C)C1CCC(C)CC1OC(C)=O,0,G1,A,None,None,Uncharged
A-2680,InChI=1S/C32H16N8.Zn/c1-2-10-18-17(9-1)25-33-26(18)38-28-21-13-5-6-14-22(21)30(35-28)40-32-24-16-8-7-15-23(24)31(36-32)39-29-20-12-4-3-11-19(20)27(34-29)37-25;/h1-16H;/q-2;+2,-6.983720983,N1C2=NC3=C4C=CC=CC4=C(N3)N=C3N=C(N=C4N=C(N=C1C1=C2C=CC=C1)C1=C4C=CC=C1)C1=C3C=CC=C1,0,G1,A,None,None,Uncharged
A-2681,"InChI=1S/C22H24ClN5O7/c1-14(29)24-22-13-17(27(8-10-34-15(2)30)9-11-35-16(3)31)4-7-21(22)26-25-20-6-5-18(28(32)33)12-19(20)23/h4-7,12-13H,8-11H2,1-3H3,(H,24,29)",-6.963714867,CC(=O)NC1=CC(=CC=C1N=NC1=CC=C(C=C1Cl)[N+]([O-])=O)N(CCOC(C)=O)CCOC(C)=O,0,G1,A,mono-constituent,None,PureChargeSeparation
A-2684,"InChI=1S/C60H114O8/c1-4-7-10-13-16-19-22-25-28-31-34-37-40-43-46-49-56(62)65-53-55(67-57(63)50-47-44-41-38-35-32-29-26-23-20-17-14-11-8-5-2)60-59(54(61)52-66-60)68-58(64)51-48-45-42-39-36-33-30-27-24-21-18-15-12-9-6-3/h54-55,59-61H,4-53H2,1-3H3/t54-,55?,59+,60-/m1/s1",-7.284910561,CCCCCCCCCCCCCCCCCC(=O)OCC(OC(=O)CCCCCCCCCCCCCCCCC)C1OCC(O)C1OC(=O)CCCCCCCCCCCCCCCCC,0,G1,A,None,Multi-constituent Substances,Uncharged
A-2685,"InChI=1S/C22H42O6/c1-2-3-4-5-6-7-8-9-10-11-12-13-14-15-20(25)27-17-19(24)22-21(26)18(23)16-28-22/h18-19,21-24,26H,2-17H2,1H3/t18-,19?,21+,22-/m1/s1",-6.905873561,CCCCCCCCCCCCCCCC(=O)OCC(O)C1OCC(O)C1O,0,G1,A,UVCB,None,Uncharged
A-2687,"InChI=1S/C48H84O6/c1-40(2)31-25-19-13-7-10-16-22-28-36-52-46(49)43-34-35-44(47(50)53-37-29-23-17-11-8-14-20-26-32-41(3)4)45(39-43)48(51)54-38-30-24-18-12-9-15-21-27-33-42(5)6/h34-35,39-42H,7-33,36-38H2,1-6H3",-7.18023716,CC(C)CCCCCCCCCCOC(=O)C1=CC=C(C(=O)OCCCCCCCCCCC(C)C)C(=C1)C(=O)OCCCCCCCCCCC(C)C,0,G1,A,UVCB,Multi-constituent Substances,Uncharged
A-2688,"InChI=1S/C24H44O6/c1-4-7-10-13-16-22(25)28-19-21(30-24(27)18-15-12-9-6-3)20-29-23(26)17-14-11-8-5-2/h21H,4-20H2,1-3H3",-6.933092295,CCCCCCC(=O)OCC(COC(=O)CCCCCC)OC(=O)CCCCCC,0,G1,A,mono-constituent,None,Uncharged
A-2689,"InChI=1S/C57H110O9/c1-4-7-10-31-40-51(58)43-34-25-19-13-16-22-28-37-46-55(61)64-49-54(66-57(63)48-39-30-24-18-15-21-27-36-45-53(60)42-33-12-9-6-3)50-65-56(62)47-38-29-23-17-14-20-26-35-44-52(59)41-32-11-8-5-2/h51-54,58-60H,4-50H2,1-3H3",-7.273925856,CCCCCCC(O)CCCCCCCCCCC(=O)OCC(COC(=O)CCCCCCCCCCC(O)CCCCCC)OC(=O)CCCCCCCCCCC(O)CCCCCC,0,G1,A,UVCB,None,Uncharged
A-2690,"InChI=1S/C27H50O6/c1-7-13-16-21(10-4)25(28)31-19-24(33-27(30)23(12-6)18-15-9-3)20-32-26(29)22(11-5)17-14-8-2/h21-24H,7-20H2,1-6H3",-6.97376589,CCCCC(CC)C(=O)OCC(COC(=O)C(CC)CCCC)OC(=O)C(CC)CCCC,0,G1,A,mono-constituent,None,Uncharged
A-2691,"InChI=1S/C57H104O6/c1-4-7-10-13-16-19-22-25-28-31-34-37-40-43-46-49-55(58)61-52-54(63-57(60)51-48-45-42-39-36-33-30-27-24-21-18-15-12-9-6-3)53-62-56(59)50-47-44-41-38-35-32-29-26-23-20-17-14-11-8-5-2/h25-30,54H,4-24,31-53H2,1-3H3/b28-25-,29-26-,30-27-",-7.248195509,CCCCCCCCC=CCCCCCCCC(=O)OCC(COC(=O)CCCCCCCC=CCCCCCCCC)OC(=O)CCCCCCCC=CCCCCCCCC,0,G1,A,UVCB,None,Uncharged
A-2692,"InChI=1S/C22H42O4/c1-19(2)13-7-5-11-17-25-21(23)15-9-10-16-22(24)26-18-12-6-8-14-20(3)4/h19-20H,5-18H2,1-4H3",-6.869904941,CC(C)CCCCCOC(=O)CCCCC(=O)OCCCCCC(C)C,0,G1,A,UVCB,Below LoD Below LoQ,Uncharged
A-2693,"InChI=1S/C36H74O/c1-3-5-7-9-11-13-15-17-19-21-23-25-27-29-31-33-35-37-36-34-32-30-28-26-24-22-20-18-16-14-12-10-8-6-4-2/h3-36H2,1-2H3",-7.019520889,CCCCCCCCCCCCCCCCCCOCCCCCCCCCCCCCCCCCC,0,G1,A,mono-constituent,None,Uncharged
A-2694,"InChI=1S/C27H50O6/c1-5-9-12-15-18-24(28)31-21-27(8-4,22-32-25(29)19-16-13-10-6-2)23-33-26(30)20-17-14-11-7-3/h5-23H2,1-4H3",-6.97376589,CCCCCCC(=O)OCC(CC)(COC(=O)CCCCCC)COC(=O)CCCCCC,0,G1,A,mono-constituent,None,Uncharged
A-2695,"InChI=1S/C41H76O4/c1-5-7-9-11-13-15-17-19-21-23-25-27-29-31-33-35-39(42)44-37-41(3,4)38-45-40(43)36-34-32-30-28-26-24-22-20-18-16-14-12-10-8-6-2/h19-22H,5-18,23-38H2,1-4H3/b21-19-,22-20-",-7.102471439,CCCCCCCCC=CCCCCCCCC(=O)OCC(C)(C)COC(=O)CCCCCCCC=CCCCCCCCC,0,G1,A,UVCB,None,Uncharged
A-2696,"InChI=1S/C21H40O4/c1-5-7-9-11-13-15-19(22)24-17-21(3,4)18-25-20(23)16-14-12-10-8-6-2/h5-18H2,1-4H3",-6.853146782,CCCCCCCC(=O)OCC(C)(C)COC(=O)CCCCCCC,0.831378916,G2,A,mono-constituent,Non Valid pH,Uncharged
A-2698,"InChI=1S/C38H72O4/c1-3-5-7-9-11-13-15-17-19-21-23-25-27-29-31-35-41-37(39)33-34-38(40)42-36-32-30-28-26-24-22-20-18-16-14-12-10-8-6-4-2/h33-34H,3-32,35-36H2,1-2H3/b34-33+",-7.074077365,CCCCCCCCCCCCCCCCCOC(=O)C=CC(=O)OCCCCCCCCCCCCCCCCC,0,G1,A,None,None,Uncharged
A-2699,"InChI=1S/C15H10BrCl2NO2/c16-8-14(20)19-13-6-5-9(17)7-11(13)15(21)10-3-1-2-4-12(10)18/h1-7H,8H2,(H,19,20)",-6.888808288,ClC1=CC=C(NC(=O)CBr)C(=C1)C(=O)C1=CC=CC=C1Cl,0,G1,A,mono-constituent,None,Uncharged
A-2701,"InChI=1S/C60H116O6/c1-8-60(51-64-57(61)48-42-36-30-24-18-12-9-15-21-27-33-39-45-54(2)3,52-65-58(62)49-43-37-31-25-19-13-10-16-22-28-34-40-46-55(4)5)53-66-59(63)50-44-38-32-26-20-14-11-17-23-29-35-41-47-56(6)7/h54-56H,8-53H2,1-7H3",-7.271182465,CCC(COC(=O)CCCCCCCCCCCCCCC(C)C)(COC(=O)CCCCCCCCCCCCCCC(C)C)COC(=O)CCCCCCCCCCCCCCC(C)C,0,G1,A,UVCB,Multi-constituent Substances,Uncharged
A-2702,"InChI=1S/C26H52O2/c1-3-5-7-9-11-12-13-14-15-16-17-18-19-20-22-24-26(27)28-25-23-21-10-8-6-4-2/h3-25H2,1-2H3",-6.899492196,CCCCCCCCCCCCCCCCCC(=O)OCCCCCCCC,0,G1,A,None,None,Uncharged
A-2703,"InChI=1S/C16H32O/c1-2-3-4-5-6-7-8-9-10-11-12-13-14-16-15-17-16/h16H,2-15H2,1H3",-6.682020458,CCCCCCCCCCCCCCC1CO1,1.650514998,G2,A,mono-constituent,None,Uncharged
A-2704,"InChI=1S/C34H52N2O4/c1-31(2,3)23-17-21(18-24(29(23)39)32(4,5)6)13-15-27(37)35-36-28(38)16-14-22-19-25(33(7,8)9)30(40)26(20-22)34(10,11)12/h17-20,39-40H,13-16H2,1-12H3,(H,35,37)(H,36,38)",-7.04359803,CC(C)(C)C1=CC(CCC(=O)NNC(=O)CCC2=CC(=C(O)C(=C2)C(C)(C)C)C(C)(C)C)=CC(=C1O)C(C)(C)C,0.650514998,G2,A,mono-constituent,None,Uncharged
A-2705,"InChI=1S/C33H60O8/c1-5-9-13-17-21-29(34)38-25-33(26-39-30(35)22-18-14-10-6-2,27-40-31(36)23-19-15-11-7-3)28-41-32(37)24-20-16-12-8-4/h5-28H2,1-4H3",-7.068063351,CCCCCCC(=O)OCC(COC(=O)CCCCCC)(COC(=O)CCCCCC)COC(=O)CCCCCC,0,G1,A,mono-constituent,Non Valid pH,Uncharged
A-2706,"InChI=1S/C77H140O8/c1-5-9-13-17-21-25-29-33-37-41-45-49-53-57-61-65-73(78)82-69-77(70-83-74(79)66-62-58-54-50-46-42-38-34-30-26-22-18-14-10-6-2,71-84-75(80)67-63-59-55-51-47-43-39-35-31-27-23-19-15-11-7-3)72-85-76(81)68-64-60-56-52-48-44-40-36-32-28-24-20-16-12-8-4/h33-40H,5-32,41-72H2,1-4H3/b37-33-,38-34-,39-35-,40-36-",-7.378019409,CCCCCCCCC=CCCCCCCCC(=O)OCC(COC(=O)CCCCCCCC=CCCCCCCCC)(COC(=O)CCCCCCCC=CCCCCCCCC)COC(=O)CCCCCCCC=CCCCCCCCC,0,G1,A,UVCB,Non Valid pH,Uncharged
A-2707,"InChI=1S/C77H148O8/c1-69(2)57-49-41-33-25-17-9-13-21-29-37-45-53-61-73(78)82-65-77(66-83-74(79)62-54-46-38-30-22-14-10-18-26-34-42-50-58-70(3)4,67-84-75(80)63-55-47-39-31-23-15-11-19-27-35-43-51-59-71(5)6)68-85-76(81)64-56-48-40-32-24-16-12-20-28-36-44-52-60-72(7)8/h69-72H,9-68H2,1-8H3",-7.380942773,CC(C)CCCCCCCCCCCCCCC(=O)OCC(COC(=O)CCCCCCCCCCCCCCC(C)C)(COC(=O)CCCCCCCCCCCCCCC(C)C)COC(=O)CCCCCCCCCCCCCCC(C)C,0,G1,A,UVCB,None,Uncharged
A-2708,"InChI=1S/C7H14O2.C5H12O2/c1-2-3-4-5-6-7(8)9;1-5(2,3-6)4-7/h2-6H2,1H3,(H,8,9);6-7H,3-4H2,1-2H3",-6.670869008,CCCCCCC([O-])=O,0,G1,A,mono-constituent,Multi-constituent Substances,Negative
A-2709,"InChI=1S/C41H76O6/c1-3-5-7-9-11-13-15-17-19-21-23-25-27-29-31-33-39(44)46-37-41(35-42,36-43)38-47-40(45)34-32-30-28-26-24-22-20-18-16-14-12-10-8-6-4-2/h17-20,42-43H,3-16,21-38H2,1-2H3/b19-17+,20-18+",-7.123886253,CCCCCCCCC=CCCCCCCCC(=O)OCC(CO)(CO)COC(=O)CCCCCCCC=CCCCCCCCC,0,G1,A,UVCB,None,Uncharged
A-2710,"InChI=1S/C17H34O2/c1-4-5-6-7-8-9-10-11-12-13-17(18)19-15-14-16(2)3/h16H,4-15H2,1-3H3",-6.733128222,CCCCCCCCCCCC(=O)OCCC(C)C,0,G1,A,mono-constituent,None,Uncharged
A-2712,"InChI=1S/C10H20O2.C8H16O2.C3H8O2/c1-2-3-4-5-6-7-8-9-10(11)12;1-2-3-4-5-6-7-8(9)10;1-3(5)2-4/h2-9H2,1H3,(H,11,12);2-7H2,1H3,(H,9,10);3-5H,2H2,1H3",-6.894954848,CCCCCCCCCC([O-])=O,0,G1,A,UVCB,Cosolvent Buffer,Negative
A-2713,"InChI=1S/C10H20O2.C8H16O2.C5H12O4/c1-2-3-4-5-6-7-8-9-10(11)12;1-2-3-4-5-6-7-8(9)10;6-1-5(2-7,3-8)4-9/h2-9H2,1H3,(H,11,12);2-7H2,1H3,(H,9,10);6-9H,1-4H2",-6.956772372,CCCCCCCCCC([O-])=O,0,G1,A,UVCB,Cosolvent Buffer,Negative
A-2714,"InChI=1S/C15H30O8/c1-2-3-4-13(21)23-12-15(8-19,9-20)11-22-10-14(5-16,6-17)7-18/h16-20H,2-12H2,1H3",-6.8304565,CCCCC(=O)OCC(CO)(CO)COCC(CO)(CO)CO,0,G1,A,UVCB,Multi-constituent Substances,Uncharged
A-2715,"InChI=1S/C25H34N2/c1-16(2)20-11-9-12-21(17(3)4)24(20)26-15-27-25-22(18(5)6)13-10-14-23(25)19(7)8/h9-14,16-19H,1-8H3",-6.860411082,CC(C)C1=CC=CC(C(C)C)=C1N=C=NC1=C(C=CC=C1C(C)C)C(C)C,0,G1,A,mono-constituent,None,Uncharged
A-2718,"InChI=1S/C22H44O2.C20H40O2/c1-3-5-7-8-9-10-11-12-13-14-15-16-17-18-19-20-22(23)24-21-6-4-2;1-3-5-7-8-9-10-11-12-13-14-15-16-17-18-20(21)22-19-6-4-2/h3-21H2,1-2H3;3-19H2,1-2H3",-7.116029628,CCCCCCCCCCCCCCCCCC(=O)OCCCC,0,G1,A,None,Multi-constituent Substances,Uncharged
A-2720,"InChI=1S/C29H56O4/c1-26(2)20-14-8-6-12-18-24-32-28(30)22-16-10-5-11-17-23-29(31)33-25-19-13-7-9-15-21-27(3)4/h26-27H,5-25H2,1-4H3",-6.971983321,CC(C)CCCCCCCOC(=O)CCCCCCCC(=O)OCCCCCCCC(C)C,0,G1,A,UVCB,None,Uncharged
A-2721,"InChI=1S/C32H60O4/c1-3-5-7-9-11-13-15-17-19-21-23-25-29-35-31(33)27-28-32(34)36-30-26-24-22-20-18-16-14-12-10-8-6-4-2/h27-28H,3-26,29-30H2,1-2H3/b28-27+",-7.007600998,CCCCCCCCCCCCCCOC(=O)C=CC(=O)OCCCCCCCCCCCCCC,0,G1,A,mono-constituent,None,Uncharged
A-2722,"InChI=1S/C22H45NO/c1-2-3-4-5-6-7-8-9-10-11-12-13-14-15-16-17-18-19-20-21-22(23)24/h2-21H2,1H3,(H2,23,24)",-6.832007908,CCCCCCCCCCCCCCCCCCCCCC(N)=O,0,G1,A,mono-constituent,None,Uncharged
A-2723,"InChI=1S/C44H88O2/c1-3-5-7-9-11-13-15-17-19-21-23-25-27-29-31-33-35-37-39-41-43-46-44(45)42-40-38-36-34-32-30-28-26-24-22-20-18-16-14-12-10-8-6-4-2/h3-43H2,1-2H3",-7.113399141,CCCCCCCCCCCCCCCCCCCCCCOC(=O)CCCCCCCCCCCCCCCCCCCCC,0,G1,A,mono-constituent,Below LoD Below LoQ,Uncharged
A-2724,"InChI=1S/C30H58O2/c1-3-5-7-9-11-13-15-16-17-18-19-20-22-24-26-28-30(31)32-29-27-25-23-21-14-12-10-8-6-4-2/h16-17H,3-15,18-29H2,1-2H3/b17-16+",-6.955006196,CCCCCCCCCCCCOC(=O)CCCCCCCC=CCCCCCCCC,0,G1,A,None,None,Uncharged
A-2725,"InChI=1S/C20H38O2.C18H36O2.C18H34O2.C16H32O2/c1-3-5-6-7-8-9-10-11-12-13-14-15-16-17-18-19-20(21)22-4-2;2*1-3-5-6-7-8-9-10-11-12-13-14-15-16-17-18(19)20-4-2;1-3-5-6-7-8-9-10-11-12-13-14-15-16(17)18-4-2/h11-12H,3-10,13-19H2,1-2H3;3-17H2,1-2H3;9-10H,3-8,11-17H2,1-2H3;3-15H2,1-2H3/b12-11-;;10-9-;",-7.355606283,CCCCCCCCC=CCCCCCCCC(=O)OCC,0,G1,A,None,Multi-constituent Substances,Uncharged
A-2726,"InChI=1S/C24H48O2/c1-4-7-9-10-11-12-13-14-15-16-17-18-19-20-22-26-24(25)23(6-3)21-8-5-2/h23H,4-22H2,1-3H3",-6.867639522,CCCCCCCCCCCCCCCCOC(=O)C(CC)CCCC,0,G1,A,UVCB,None,Uncharged
A-2727,"InChI=1S/C18H36O2/c1-3-5-7-9-10-11-12-13-14-16-18(19)20-17-15-8-6-4-2/h3-17H2,1-2H3",-6.755087841,CCCCCCCCCCCC(=O)OCCCCCC,0,G1,A,mono-constituent,None,Uncharged
A-2728,"InChI=1S/C21H42O4/c1-19(2)15-13-11-9-7-5-3-4-6-8-10-12-14-16-21(24)25-20(17-22)18-23/h19-20,22-23H,3-18H2,1-2H3",-6.855595469,CC(C)CCCCCCCCCCCCCCC(=O)OC(CO)CO,0,G1,A,UVCB,None,Uncharged
A-2729,InChI=1S/2Mg.2Nb.7O/q2*+2;2*+5;7*-2,-6.840626685,O.O.O.O.O.O.O.[Mg++].[Mg++].[Nb+5].[Nb+5],0,G1,A,None,None,Uncharged
A-2730,"InChI=1S/C40H76O2/c1-3-5-7-9-11-13-15-17-19-21-22-23-24-26-28-30-32-34-36-38-40(41)42-39-37-35-33-31-29-27-25-20-18-16-14-12-10-8-6-4-2/h17-20H,3-16,21-39H2,1-2H3/b19-17-,20-18-",-7.071179207,CCCCCCCCC=CCCCCCCCCCCCC(=O)OCCCCCCCCC=CCCCCCCCC,0,G1,A,mono-constituent,None,Uncharged
A-2731,"InChI=1S/C36H68O2/c1-3-5-7-9-11-13-15-17-19-21-23-25-27-29-31-33-35-38-36(37)34-32-30-28-26-24-22-20-18-16-14-12-10-8-6-4-2/h17,19-20,22H,3-16,18,21,23-35H2,1-2H3/b19-17-,22-20-",-7.027706683,CCCCCCCCCC=CCCCCCCC(=O)OCCCCCCCCC=CCCCCCCCC,0,G1,A,None,None,Uncharged
A-2732,"InChI=1S/C16H32O2/c1-3-5-7-9-11-13-15-18-16(17)14-12-10-8-6-4-2/h3-15H2,1-2H3",-6.709998828,CCCCCCCCOC(=O)CCCCCCC,0,G1,A,mono-constituent,None,Uncharged
A-2733,"InChI=1S/C32H62O2/c1-3-5-7-9-11-13-15-17-18-19-20-22-24-26-28-30-32(33)34-31-29-27-25-23-21-16-14-12-10-8-6-4-2/h17-18H,3-16,19-31H2,1-2H3/b18-17-",-6.98122586,CCCCCCCCCCCCCCOC(=O)CCCCCCCC=CCCCCCCCC,0,G1,A,UVCB,Non Valid pH,Uncharged
A-2734,"InChI=1S/C32H58O8/c1-8-14-17-26(11-4)22-37-29(34)20-32(40-25(7)33,31(36)39-24-28(13-6)19-16-10-3)21-30(35)38-23-27(12-5)18-15-9-2/h26-28H,8-24H2,1-7H3",-7.057520047,CCCCC(CC)COC(=O)CC(CC(=O)OCC(CC)CCCC)(OC(C)=O)C(=O)OCC(CC)CCCC,0,G1,A,mono-constituent,Below LoD Below LoQ,Uncharged
A-2736,"InChI=1S/C30H29N3O/c1-29(2,21-13-7-5-8-14-21)23-19-24(30(3,4)22-15-9-6-10-16-22)28(34)27(20-23)33-31-25-17-11-12-18-26(25)32-33/h5-20,34H,1-4H3",-7.048812621,CC(C)(C1=CC=CC=C1)C1=CC(N2N=C3C=CC=CC3=N2)=C(O)C(=C1)C(C)(C)C1=CC=CC=C1,0.451544993,G3,A,mono-constituent,None,Uncharged
A-2737,"InChI=1S/C37H52O3/c1-21(25-18-29(35(5,6)7)32(38)15-22(25)2)14-28(26-19-30(36(8,9)10)33(39)16-23(26)3)27-20-31(37(11,12)13)34(40)17-24(27)4/h15-21,28,38-40H,14H2,1-13H3",-7.134193051,CC(CC(C1=CC(=C(O)C=C1C)C(C)(C)C)C1=CC(=C(O)C=C1C)C(C)(C)C)C1=CC(=C(O)C=C1C)C(C)(C)C,0,G1,A,mono-constituent,None,Uncharged