ID,InChI,Solubility,SMILEScurated,SD,Group,Dataset,Composition,Error,Charge
A-4323,"InChI=1S/CH5N3.CHNS/c2-1(3)4;2-1-3/h(H5,2,3,4);3H",1.106488088,NC(N)=[NH2+],0.203483255,G5,A,mono-constituent,Cosolvent Buffer,Positive
A-4324,"InChI=1S/C12H26O4S.Na/c1-2-3-4-5-6-7-8-9-10-11-12-16-17(13,14)15;/h2-12H2,1H3,(H,13,14,15);/q;+1/p-1",-0.283881408,CCCCCCCCCCCCOS([O-])(=O)=O,0.15711494,G5,A,mono-constituent,None,Negative
A-4325,"InChI=1S/C9H16N2O3/c1-6(2)7(8(12)13)11-5-3-4-10-9(11)14/h6-7H,3-5H2,1-2H3,(H,10,14)(H,12,13)",-1.102861926,CC(C)C(N1CCCNC1=O)C([O-])=O,0.008613258,G5,A,None,None,Negative
A-4326,"InChI=1S/C6H7NO2/c1-3-6(4-7)9-5(2)8/h3,6H,1H2,2H3",-0.898693945,CC(=O)OC(C=C)C#N,0,G1,A,mono-constituent,None,Uncharged
A-4329,"InChI=1S/C7H14O/c1-6-4-2-3-5-7(6)8/h6-8H,2-5H2,1H3",-0.864495868,CC1CCCCC1O,0,G1,A,multi-constituent,None,Uncharged
A-4334,"InChI=1S/C9H12O2/c1-8(10)7-11-9-5-3-2-4-6-9/h2-6,8,10H,7H2,1H3",-1.003417731,CC(O)COC1=CC=CC=C1,0.068791135,G3,A,mono-constituent,None,Uncharged
A-4335,"InChI=1S/C4H9N3O2/c1-7(4(5)6)2-3(8)9/h2H2,1H3,(H3,5,6)(H,8,9)",-0.938741673,CN(CC([O-])=O)C(N)=[NH2+],0.00984007,G3,A,mono-constituent,None,Zwitterion
A-4336,"InChI=1S/C7H9N/c1-6-4-2-3-5-7(6)8/h2-5H,8H2,1H3",-0.853925235,CC1=CC=CC=C1N,0.59859566,G4,A,mono-constituent,None,Uncharged
A-4337,"InChI=1S/C11H25NO/c1-3-5-7-11(4-2)10-13-9-6-8-12/h11H,3-10,12H2,1-2H3",-1.096509119,CCCCC(CC)COCCC[NH3+],0,G1,A,mono-constituent,None,Positive
A-4339,"InChI=1S/C5H10O/c1-5(2)3-4-6/h4-5H,3H2,1-2H3",-0.759083357,CC(C)CC=O,0.055753489,G5,A,mono-constituent,None,Uncharged
A-4342,"InChI=1S/C6H9N3O2.ClH/c7-5(6(10)11)1-4-2-8-3-9-4;/h2-3,5H,1,7H2,(H,8,9)(H,10,11);1H/t5-;/m0./s1",-0.107649886,[NH3+]C(CC1=CN=CN1)C([O-])=O,0,G1,A,None,None,Zwitterion
A-4344,"InChI=1S/5Na.H5O10P3/c;;;;;1-11(2,3)9-13(7,8)10-12(4,5)6/h;;;;;(H,7,8)(H2,1,2,3)(H2,4,5,6)/q5*+1;/p-5",-0.395423212,OP([O-])(=O)OP([O-])(=O)OP([O-])([O-])=O,0,G1,A,mono-constituent,None,Negative
A-4348,"InChI=1S/C6H7O6.Na/c7-1-2(8)5-3(9)4(10)6(11)12-5;/h2,5,8,10-11H,1H2;/q-1;+1/t2-,5-;/m1./s1",-0.132544773,OCC(O)C1OC(=O)C(O)=C1[O-],0,G1,A,mono-constituent,None,Negative
A-4349,"InChI=1S/C6H10O3/c1-3-6(7)9-5-4-8-2/h3H,1,4-5H2,2H3",0.043941678,COCCOC(=O)C=C,0,G1,A,mono-constituent,Non Valid pH,Uncharged
A-4350,"InChI=1S/C6H9N3O2S.ClH/c7-9-5-1-3-6(4-2-5)12(8,10)11;/h1-4,9H,7H2,(H2,8,10,11);1H",-0.19127437,NNC1=CC=C(C=C1)S(N)(=O)=O,0,G1,A,None,None,Uncharged
A-4351,"InChI=1S/C3H8N2O/c1-5(2)3(4)6/h1-2H3,(H2,4,6)",0.212431567,CN(C)C(N)=O,0,G1,A,mono-constituent,Non Valid pH,Uncharged
A-4352,InChI=1S/2CN.Au.K/c2*1-2;;/q2*-1;2*+1,-0.304208728,C#N,0,G1,A,None,None,Uncharged
A-4353,"InChI=1S/C52H38N10O18S6.C38H28N8O12S4.10Na/c63-81(64,65)47-25-21-41(22-26-47)55-53-37-13-17-39(18-14-37)57-59-43-9-5-33(49(29-43)83(69,70)71)1-3-35-7-11-45(31-51(35)85(75,76)77)61-62-46-12-8-36(52(32-46)86(78,79)80)4-2-34-6-10-44(30-50(34)84(72,73)74)60-58-40-19-15-38(16-20-40)54-56-42-23-27-48(28-24-42)82(66,67)68;47-59(48,49)35-19-15-31(16-20-35)41-39-27-7-11-29(12-8-27)43-45-33-5-3-25(37(23-33)61(53,54)55)1-2-26-4-6-34(24-38(26)62(56,57)58)46-44-30-13-9-28(10-14-30)40-42-32-17-21-36(22-18-32)60(50,51)52;;;;;;;;;;/h1-32H,(H,63,64,65)(H,66,67,68)(H,69,70,71)(H,72,73,74)(H,75,76,77)(H,78,79,80);1-24H,(H,47,48,49)(H,50,51,52)(H,53,54,55)(H,56,57,58);;;;;;;;;;/q;;10*+1/p-10/b3-1+,4-2+,55-53?,56-54?,59-57?,60-58?,62-61?;2-1+,41-39?,42-40?,45-43?,46-44?;;;;;;;;;;",-1.231545685,[Na+].[Na+].[Na+].[Na+].[Na+].[Na+].[Na+].[Na+].[Na+].[Na+].[O-]S(=O)(=O)C1=CC=C(C=C1)N=NC1=CC=C(C=C1)N=NC1=CC=C(C=CC2=CC=C(C=C2S([O-])(=O)=O)N=NC2=CC=C(C=C2)N=NC2=CC=C(C=C2)S([O-])(=O)=O)C(=C1)S([O-])(=O)=O.[O-]S(=O)(=O)C1=CC=C(C=C1)N=NC1=CC=C(C=C1)N=NC1=CC=C(C=CC2=CC=C(C=C2S([O-])(=O)=O)N=NC2=CC=C(C=CC3=CC=C(C=C3S([O-])(=O)=O)N=NC3=CC=C(C=C3)N=NC3=CC=C(C=C3)S([O-])(=O)=O)C(=C2)S([O-])(=O)=O)C(=C1)S([O-])(=O)=O,0,G1,A,None,Multi-constituent Substances,Zwitterion
A-4356,"InChI=1S/C8H8O3/c9-7(8(10)11)6-4-2-1-3-5-6/h1-5,7,9H,(H,10,11)",-0.032126941,OC(C([O-])=O)C1=CC=CC=C1,0.077872061,G5,A,multi-constituent,Non Valid pH,Negative
A-4359,"InChI=1S/C5H8N2O2/c1-5(2)3(8)6-4(9)7-5/h1-2H3,(H2,6,7,8,9)",0.03847382,CC1(C)NC(=O)NC1=O,0,G1,A,mono-constituent,None,Uncharged
A-4361,"InChI=1S/C36H36N12O14S4.4Na/c49-15-13-37-31-43-33(39-23-3-1-5-27(17-23)63(51,52)53)47-35(45-31)41-25-11-9-21(29(19-25)65(57,58)59)7-8-22-10-12-26(20-30(22)66(60,61)62)42-36-46-32(38-14-16-50)44-34(48-36)40-24-4-2-6-28(18-24)64(54,55)56;;;;/h1-12,17-20,49-50H,13-16H2,(H,51,52,53)(H,54,55,56)(H,57,58,59)(H,60,61,62)(H3,37,39,41,43,45,47)(H3,38,40,42,44,46,48);;;;/q;4*+1/b8-7+;;;;",-0.887690427,OCCNC1=NC(NC2=CC=CC(=C2)S([O-])(=O)=O)=NC(NC2=CC=C(C=CC3=CC=C(NC4=NC(NCCO)=NC(NC5=CC=CC(=C5)S([O-])(=O)=O)=N4)C=C3S([O-])(=O)=O)C(=C2)S([O-])(=O)=O)=N1,0,G1,A,mono-constituent,Non Valid pH,Negative
A-4364,"InChI=1S/C6H7O3P/c7-10(8,9)6-4-2-1-3-5-6/h1-5H,(H2,7,8,9)",-1.026923058,[O-]P([O-])(=O)C1=CC=CC=C1,0.597848971,G4,A,mono-constituent,None,Negative
A-4367,"InChI=1S/C17H14N4O6S.2Na/c1-10-15(19-18-14-5-3-2-4-13(14)17(23)24)16(22)21(20-10)11-6-8-12(9-7-11)28(25,26)27;;/h2-9,15H,1H3,(H,23,24)(H,25,26,27);;/q;2*+1/p-2",-1.491314993,CC1=NN(C(=O)C1N=NC1=CC=CC=C1C([O-])=O)C1=CC=C(C=C1)S([O-])(=O)=O,0,G1,A,mono-constituent,None,Negative
A-4371,"InChI=1S/C9H6Cl2N4O3S.Na/c10-7-13-8(11)15-9(14-7)12-5-1-3-6(4-2-5)19(16,17)18;/h1-4H,(H,16,17,18)(H,12,13,14,15);/q;+1/p-1",-1.38103092,[O-]S(=O)(=O)C1=CC=C(NC2=NC(Cl)=NC(Cl)=N2)C=C1,0,G1,A,mono-constituent,None,Negative
A-4372,"InChI=1S/C15H24O.C4H11NO2.C3H6O.CH2O/c1-2-3-4-5-6-7-8-11-14-12-9-10-13-15(14)16;6-3-1-5-2-4-7;1-3-2-4-3;1-2/h9-10,12-13,16H,2-8,11H2,1H3;5-7H,1-4H2;3H,2H2,1H3;1H2",-1.463069491,CCCCCCCCCC1=CC=CC=C1O,0,G1,A,None,Cosolvent Buffer,Uncharged
A-4374,"InChI=1S/C22H24N3O2.ClH/c1-5-25(6-2)16-12-11-15-13-17(22(26)27-20(15)14-16)21-23(3)18-9-7-8-10-19(18)24(21)4;/h7-14H,5-6H2,1-4H3;1H/q+1;/p-1",-1.450561375,CCN(CC)C1=CC=C2C=C(C3=[N+](C)C4=CC=CC=C4N3C)C(=O)OC2=C1,0,G1,A,mono-constituent,None,Positive
A-4376,"InChI=1S/C6H12O/c1-5(2)4-6(3)7/h5H,4H2,1-3H3",-0.851479539,CC(C)CC(C)=O,0.285318383,G5,A,mono-constituent,Non Valid pH,Uncharged
A-4377,"InChI=1S/C7H9NO/c1-9-7-5-3-2-4-6(7)8/h2-5H,8H2,1H3",-0.944324013,COC1=CC=CC=C1N,0.022887994,G3,A,mono-constituent,None,Uncharged
A-4379,"InChI=1S/C8H14O3/c1-3-9-5-7-11-8-6-10-4-2/h3-4H,1-2,5-8H2",-1.053070208,C=COCCOCCOC=C,0,G1,A,mono-constituent,None,Uncharged
A-4383,"InChI=1S/C26H20ClN7O10S3.3Na/c1-34(26-30-24(27)29-25(31-26)28-15-5-4-6-17(13-15)45(36,37)38)16-9-10-18-14(11-16)12-21(47(42,43)44)22(23(18)35)33-32-19-7-2-3-8-20(19)46(39,40)41;;;/h2-13,32H,1H3,(H,36,37,38)(H,39,40,41)(H,42,43,44)(H,28,29,30,31);;;/q;3*+1/p-3/b33-22-;;;",-0.752029987,CN(C1=CC=C2C(=C1)C=C(C(=NNC1=CC=CC=C1S([O-])(=O)=O)C2=O)S([O-])(=O)=O)C1=NC(Cl)=NC(NC2=CC=CC(=C2)S([O-])(=O)=O)=N1,0,G1,A,mono-constituent,None,Negative
A-4386,InChI=1S/Cu.2NO3/c;2*2-1(3)4/q+2;2*-1,0.866122887,[O-][N+]([O-])=O,0,G1,A,mono-constituent,None,Negative
A-4392,"InChI=1S/C3H4N2/c1-2-4-5-3-1/h1-3H,(H,4,5)",1.28788965,N1C=CC=N1,0.916544825,G2,A,mono-constituent,None,Uncharged
A-4393,"InChI=1S/C21H29ClN5O3.C2H4O2/c1-5-25(12-13-27(3,4)15-16(2)28)18-8-6-17(7-9-18)23-24-21-11-10-19(26(29)30)14-20(21)22;1-2(3)4/h6-11,14,16,28H,5,12-13,15H2,1-4H3;1H3,(H,3,4)/q+1;/p-1",-0.573145985,CCN(CC[N+](C)(C)CC(C)O)C1=CC=C(C=C1)N=NC1=CC=C(C=C1Cl)[N+]([O-])=O,0,G1,A,mono-constituent,Cosolvent Buffer,Positive
A-4394,"InChI=1S/C21H29ClN5O3.ClH/c1-5-25(12-13-27(3,4)15-16(2)28)18-8-6-17(7-9-18)23-24-21-11-10-19(26(29)30)14-20(21)22;/h6-11,14,16,28H,5,12-13,15H2,1-4H3;1H/q+1;/p-1",-0.551894305,CCN(CC[N+](C)(C)CC(C)O)C1=CC=C(C=C1)N=NC1=CC=C(C=C1Cl)[N+]([O-])=O,0,G1,A,mono-constituent,Non Valid pH,Positive
A-4395,"InChI=1S/2C5H7NO3.Cu/c2*7-4-2-1-3(6-4)5(8)9;/h2*3H,1-2H2,(H,6,7)(H,8,9);/q;;+2/p-2",-0.384250204,[O-]C(=O)C1CCC(=O)N1,0,G1,A,mono-constituent,None,Negative
A-4396,"InChI=1S/C27H24N6O9S2.2Na/c1-41-25-15-19(32-30-17-5-3-7-21(13-17)43(35,36)37)9-11-23(25)28-27(34)29-24-12-10-20(16-26(24)42-2)33-31-18-6-4-8-22(14-18)44(38,39)40;;/h3-16H,1-2H3,(H2,28,29,34)(H,35,36,37)(H,38,39,40);;/q;2*+1/p-2",-0.714875651,COC1=CC(=CC=C1NC(=O)NC1=CC=C(C=C1OC)N=NC1=CC=CC(=C1)S([O-])(=O)=O)N=NC1=CC=CC(=C1)S([O-])(=O)=O,0,G1,A,mono-constituent,Non Valid pH,Negative
A-4400,"InChI=1S/C7H12O3/c1-5(2)7(9)10-6(3)4-8/h6,8H,1,4H2,2-3H3",-0.044931546,CC(CO)OC(=O)C(C)=C,0,G1,A,None,None,Uncharged
A-4401,"InChI=1S/C10H10O3/c1-7-2-3-9-10(4-7)13-6-8(11)5-12-9/h2-4H,5-6H2,1H3",-1.114155449,CC1=CC=C2OCC(=O)COC2=C1,0,G1,A,mono-constituent,Non Valid pH,Uncharged
A-4402,"InChI=1S/C11H13NO4/c1-3-15-10(13)8-5-6-12-9(7-8)11(14)16-4-2/h5-7H,3-4H2,1-2H3",-1.2184149,CCOC(=O)C1=CC=NC(=C1)C(=O)OCC,0,G1,A,mono-constituent,None,Uncharged
A-4404,"InChI=1S/C40H44N12O10S2.2K.2Na/c53-21-17-51(18-22-54)39-47-35(41-29-7-3-1-4-8-29)45-37(49-39)43-31-15-13-27(33(25-31)63(57,58)59)11-12-28-14-16-32(26-34(28)64(60,61)62)44-38-46-36(42-30-9-5-2-6-10-30)48-40(50-38)52(19-23-55)20-24-56;;;;/h1-16,25-26,53-56H,17-24H2,(H,57,58,59)(H,60,61,62)(H2,41,43,45,47,49)(H2,42,44,46,48,50);;;;/q;;;2*+1/p-2/b12-11+;;;;",-1.887960137,OCCN(CCO)C1=NC(NC2=CC=C(C=CC3=CC=C(NC4=NC(=NC(NC5=CC=CC=C5)=N4)N(CCO)CCO)C=C3S([O-])(=O)=O)C(=C2)S([O-])(=O)=O)=NC(NC2=CC=CC=C2)=N1,0,G1,A,mono-constituent,None,Negative
A-4405,"InChI=1S/C10H12O2/c1-10(2,12)9(11)8-6-4-3-5-7-8/h3-7,12H,1-2H3",-1.091532091,CC(C)(O)C(=O)C1=CC=CC=C1,0,G1,A,mono-constituent,Non Valid pH,Uncharged
A-4406,"InChI=1S/C9H10O3/c1-5-2-3-6-7(4-5)9(11)12-8(6)10/h2,6-7H,3-4H2,1H3",-1.09999437,CC1=CCC2C(C1)C(=O)OC2=O,0,G1,A,mono-constituent,Non Valid pH,Uncharged
A-4407,"InChI=1S/C8H18O.H3O4P/c1-3-5-6-8(4-2)7-9;1-5(2,3)4/h8-9H,3-7H2,1-2H3;(H3,1,2,3,4)",-1.237789285,CCCCC(CC)CO,1.673028483,G2,A,None,Cosolvent Buffer,Uncharged
A-4411,"InChI=1S/C5H10O/c1-3-5(2)4-6/h4-5H,3H2,1-2H3",-0.821231264,CCC(C)C=O,0,G1,A,mono-constituent,None,Uncharged
A-4412,"InChI=1S/C9H19NO/c1-8(2)5-10(7-11)6-9(3)4/h7-9H,5-6H2,1-4H3",-1.082666634,CC(C)CN(CC(C)C)C=O,0,G1,A,mono-constituent,None,Uncharged
A-4414,"InChI=1S/C7H10N4O3/c1-10-5(8)4(9-3-12)6(13)11(2)7(10)14/h3H,8H2,1-2H3,(H,9,12)",-1.183120855,CN1C(=O)N(C)C(=O)C(NC=O)=C1N,0,G1,A,mono-constituent,None,Uncharged
A-4415,"InChI=1S/C28H24ClN7O10S3.3Na/c1-3-36(17-7-5-4-6-8-17)28-32-26(29)31-27(33-28)30-20-14-18(47(38,39)40)12-16-13-22(49(44,45)46)24(25(37)23(16)20)35-34-19-10-9-15(2)11-21(19)48(41,42)43;;;/h4-14,34H,3H2,1-2H3,(H,38,39,40)(H,41,42,43)(H,44,45,46)(H,30,31,32,33);;;/q;3*+1/p-3/b35-24+;;;",-0.800434395,CCN(C1=CC=CC=C1)C1=NC(Cl)=NC(NC2=CC(=CC3=C2C(=O)C(=NNC2=CC=C(C)C=C2S([O-])(=O)=O)C(=C3)S([O-])(=O)=O)S([O-])(=O)=O)=N1,0,G1,A,mono-constituent,None,Negative
A-4416,"InChI=1S/C6H10O2/c1-2-3-7-4-6-5-8-6/h2,6H,1,3-5H2",0.049756882,C=CCOCC1CO1,0.019459033,G3,A,mono-constituent,None,Uncharged
A-4423,"InChI=1S/C8H14O4/c1-3-10-7(9)6-8(2)11-4-5-12-8/h3-6H2,1-2H3",-0.144823593,CCOC(=O)CC1(C)OCCO1,0,G1,A,mono-constituent,None,Uncharged
A-4424,"InChI=1S/C34H26N6O19S4.2Li.2Na/c1-58-25-11-17(3-5-21(25)35-37-31-27(62(52,53)54)9-15-7-19(60(46,47)48)13-23(41)29(15)33(31)43)39-40(45)18-4-6-22(26(12-18)59-2)36-38-32-28(63(55,56)57)10-16-8-20(61(49,50)51)14-24(42)30(16)34(32)44;;;;/h3-14,36,41-42,45H,1-2H3,(H,46,47,48)(H,49,50,51)(H,52,53,54)(H,55,56,57);;;;/q;4*+1/p-4/b35-21-,37-31-,38-32+,39-17+;;;;",-0.909479678,COC1=CC(=CC=C1NN=C1C(=O)C2=C(O)C=C(C=C2C=C1S([O-])(=O)=O)S([O-])(=O)=O)N(O)N=C1C=CC(=NN=C2C(=O)C3=C(O)C=C(C=C3C=C2S([O-])(=O)=O)S([O-])(=O)=O)C(OC)=C1,0,G1,A,None,None,Negative
A-4426,InChI=1S/K.3O.V/q+1;;;-1;,-0.046573827,[O-][V](=O)=O,0,G1,A,mono-constituent,Non Valid pH,Negative
A-4427,InChI=1S/La,0.947184106,[La],0,G1,A,mono-constituent,Cosolvent Buffer,Uncharged
A-4428,"InChI=1S/C28H21ClF2N8O16S5.2Li.2Na/c29-21-26(30)34-28(31)35-27(21)33-14-3-6-17(57(43,44)45)16(11-14)37-39-24-19(59(49,50)51)10-12-9-18(58(46,47)48)23(22(32)20(12)25(24)40)38-36-13-1-4-15(5-2-13)56(41,42)8-7-55-60(52,53)54;;;;/h1-6,9-11,37H,7-8,32H2,(H,33,34,35)(H,43,44,45)(H,46,47,48)(H,49,50,51)(H,52,53,54);;;;/q;4*+1/p-4/b38-36?,39-24+;;;;",-0.913801018,NC1=C(N=NC2=CC=C(C=C2)S(=O)(=O)CCOS([O-])(=O)=O)C(=CC2=C1C(=O)C(=NNC1=CC(NC3=NC(F)=NC(F)=C3Cl)=CC=C1S([O-])(=O)=O)C(=C2)S([O-])(=O)=O)S([O-])(=O)=O,0,G1,A,None,None,Negative
A-4429,"InChI=1S/C27H22ClN7O16S5.4Na/c28-25-31-26(29-16-2-1-3-18(12-16)53(39,40)41)33-27(32-25)30-20-13-19(54(42,43)44)10-14-11-21(55(45,46)47)23(24(36)22(14)20)35-34-15-4-6-17(7-5-15)52(37,38)9-8-51-56(48,49)50;;;;/h1-7,10-13,34H,8-9H2,(H,39,40,41)(H,42,43,44)(H,45,46,47)(H,48,49,50)(H2,29,30,31,32,33);;;;/q;4*+1/p-4/b35-23+;;;;",-0.903187957,[O-]S(=O)(=O)OCCS(=O)(=O)C1=CC=C(NN=C2C(=O)C3=C(NC4=NC(Cl)=NC(NC5=CC=CC(=C5)S([O-])(=O)=O)=N4)C=C(C=C3C=C2S([O-])(=O)=O)S([O-])(=O)=O)C=C1,0,G1,A,mono-constituent,None,Negative
A-4430,"InChI=1S/C6H10O4/c1-9-5(7)3-4-6(8)10-2/h3-4H2,1-2H3",-0.075223164,COC(=O)CCC(=O)OC,0.335214515,G5,A,mono-constituent,Non Valid pH,Uncharged
A-4433,"InChI=1S/C14H18O6/c15-13(19-7-9-5-17-9)11-3-1-2-4-12(11)14(16)20-8-10-6-18-10/h1-2,9-12H,3-8H2",-1.34010886,O=C(OCC1CO1)C1CC=CCC1C(=O)OCC1CO1,0,G1,A,mono-constituent,None,Uncharged
A-4434,"InChI=1S/2C5H7O2.Ca/c2*1-4(6)3-5(2)7;/h2*3H,1-2H3;/q2*-1;+2",-1.266527042,CC(O)=CC(C)=O,0,G1,A,None,None,Uncharged
A-4435,"InChI=1S/C19H15BrN4O8S2.2Na/c1-9(20)19(26)22-11-3-5-14(16(7-11)34(30,31)32)23-24-18-13(21)4-2-10-6-12(33(27,28)29)8-15(25)17(10)18;;/h2-8,21,23-24H,1H2,(H,22,26)(H,27,28,29)(H,30,31,32);;/q;2*+1/p-2",-1.6785332,NC1=CC=C2C=C(C=C([O-])C2=C1N=NC1=CC=C(NC(=O)C(Br)=C)C=C1S([O-])(=O)=O)S([O-])(=O)=O,0,G1,A,mono-constituent,None,Negative
A-4436,"InChI=1S/C7H5NO2/c8-4-5-1-2-6(9)7(10)3-5/h1-3,9-10H",-1.023516095,OC1=CC=C(C=C1O)C#N,0.021004572,G3,A,mono-constituent,None,Uncharged
A-4437,"InChI=1S/C16H26O7/c1-13(2)15(17)22-11-9-20-7-5-19-6-8-21-10-12-23-16(18)14(3)4/h1,3,5-12H2,2,4H3",-1.41863926,CC(=C)C(=O)OCCOCCOCCOCCOC(=O)C(C)=C,0,G1,A,mono-constituent,Non Valid pH,Uncharged
A-4438,"InChI=1S/C6H7NO3S/c7-5-1-3-6(4-2-5)11(8,9)10/h1-4H,7H2,(H,8,9,10)",-1.141273025,NC1=CC=C(C=C1)S([O-])(=O)=O,0.036160805,G5,A,mono-constituent,None,Negative
A-4439,"InChI=1S/C6H12O/c1-7-6-4-2-3-5-6/h6H,2-5H2,1H3",-0.903788639,COC1CCCC1,0,G1,A,mono-constituent,None,Uncharged
A-4440,"InChI=1S/C6H8N2O3S/c7-5-2-1-4(3-6(5)8)12(9,10)11/h1-3H,7-8H2,(H,9,10,11)",-1.181216395,NC1=CC=C(C=C1N)S([O-])(=O)=O,0,G1,A,mono-constituent,None,Negative
A-4442,"InChI=1S/C6H6N2O/c9-8-5-6-3-1-2-4-7-6/h1-5,7H/b6-5+",-1.000451858,ON=CC1=NC=CC=C1,0,G1,A,mono-constituent,None,Uncharged
A-4444,"InChI=1S/C8H9NO2/c10-7-5-3-1-2-4-6(5)8(11)9-7/h1-2,5-6H,3-4H2,(H,9,10,11)",-1.093091418,O=C1NC(=O)C2CC=CCC12,0,G1,A,mono-constituent,Non Valid pH,Uncharged
A-4445,"InChI=1S/C9H14O/c1-7-4-8(10)6-9(2,3)5-7/h4H,5-6H2,1-3H3",-1.061358221,CC1=CC(=O)CC(C)(C)C1,0.041093378,G3,A,mono-constituent,None,Uncharged
A-4446,"InChI=1S/C7H9N/c1-6-3-2-4-7(8)5-6/h2-5H,8H2,1H3",-0.950835248,CC1=CC=CC(N)=C1,0.088613646,G5,A,mono-constituent,None,Uncharged
A-4449,"InChI=1S/C31H36N2O6S2/c1-5-32(6-2)25-15-9-23(10-16-25)30(24-11-17-26(18-12-24)33(7-3)8-4)31-28-21-27(40(34,35)36)19-13-22(28)14-20-29(31)41(37,38)39/h9-21,30H,5-8H2,1-4H3,(H,34,35,36)(H,37,38,39)",-0.698476149,CCN(CC)C1=CC=C(C=C1)C(C1=CC=C(C=C1)N(CC)CC)C1=C(C=CC2=CC=C(C=C12)S([O-])(=O)=O)S([O-])(=O)=O,0,G1,A,None,None,Negative
A-4450,"InChI=1S/C5H12O/c1-4-5(2,3)6/h6H,4H2,1-3H3",0.126659691,CCC(C)(C)O,0.027049225,G5,A,None,None,Uncharged
A-4451,InChI=1S/3NO3.Rh/c3*2-1(3)4;/q3*-1;+3,0.607411262,[O-][N+]([O-])=O,0,G1,A,None,None,Negative
A-4453,"InChI=1S/CH4N2S/c2-1(3)4/h(H4,2,3,4)",0.188516266,NC(N)=S,0.102251454,G5,A,None,None,Uncharged
A-4456,"InChI=1S/C32H21ClF2N6O11S3.Li.2Na/c33-25-29(34)38-32(35)39-30(25)36-14-16-7-4-8-20-19(16)9-10-21(28(20)55(50,51)52)40-41-26-23(54(47,48)49)12-17-11-18(53(44,45)46)13-22(24(17)27(26)42)37-31(43)15-5-2-1-3-6-15;;;/h1-13,40H,14H2,(H,37,43)(H,36,38,39)(H,44,45,46)(H,47,48,49)(H,50,51,52);;;/q;3*+1/p-3/b41-26+;;;",-0.890086508,[O-]S(=O)(=O)C1=CC(NC(=O)C2=CC=CC=C2)=C2C(=C1)C=C(C(=NNC1=C(C3=CC=CC(CNC4=NC(F)=NC(F)=C4Cl)=C3C=C1)S([O-])(=O)=O)C2=O)S([O-])(=O)=O,0,G1,A,None,None,Negative
A-4458,"InChI=1S/C6H6O2/c7-5-2-1-3-6(8)4-5/h1-4,7-8H",1.003488328,OC1=CC(O)=CC=C1,0.132434594,G5,A,None,None,Uncharged
A-4459,"InChI=1S/C21H38N.ClH/c1-2-3-4-5-6-7-8-9-10-11-12-13-14-16-19-22-20-17-15-18-21-22;/h15,17-18,20-21H,2-14,16,19H2,1H3;1H/q+1;/p-1",-0.486149552,CCCCCCCCCCCCCCCC[N+]1=CC=CC=C1,0,G1,A,None,None,Positive
A-4461,"InChI=1S/C9H18O3/c1-3-5-12-8-9(4-2,6-10)7-11/h3,10-11H,1,4-8H2,2H3",-0.199755177,CCC(CO)(CO)COCC=C,0,G1,A,None,None,Uncharged
A-4462,"InChI=1S/C5H9NOS/c1-8-3-2-5(7)4-6/h5,7H,2-3H2,1H3",-0.07654115,CSCCC(O)C#N,0,G1,A,None,None,Uncharged
A-4463,"InChI=1S/C5H8O/c1-5(2)3-4-6/h3-4H,1-2H3",0.116503747,CC(C)=CC=O,0,G1,A,None,None,Uncharged
A-4464,InChI=1S/Li.H2O/h;1H2/q+1;/p-1,0.662123436,[Li+].O,0.18434784,G5,A,None,None,Positive
A-4465,"InChI=1S/C8H14O/c1-5-8(4,9)6-7(2)3/h1,7,9H,6H2,2-4H3",-1.036597924,CC(C)CC(C)(O)C#C,0,G1,A,None,None,Uncharged
A-4466,"InChI=1S/C7H10O/c8-6-7-4-2-1-3-5-7/h1-2,6-7H,3-5H2",-0.977550168,O=CC1CCC=CC1,0,G1,A,None,None,Uncharged
A-4468,"InChI=1S/C4H4N2O3/c7-2-1-3(8)6-4(9)5-2/h1H2,(H2,5,6,7,8,9)",-1.048661639,O=C1[CH-]C(=O)[N-]C(=O)N1,0.11745648,G3,A,None,None,Negative
A-4470,"InChI=1S/C6H13ClO/c7-5-3-1-2-4-6-8/h8H,1-6H2",-1.082442195,OCCCCCCCl,0,G1,A,None,None,Uncharged
A-4471,InChI=1S/C8H12N2/c9-7-5-3-1-2-4-6-8-10/h1-6H2,-1.081092287,N#CCCCCCCC#N,0,G1,A,None,None,Uncharged
A-4472,"InChI=1S/C13H15N3O3/c1-7(2)13(3)12(19)15-10(16-13)9-8(11(17)18)5-4-6-14-9/h4-7H,1-3H3,(H,17,18)(H,15,16,19)",-1.364029386,CC(C)C1(C)N=C(NC1=O)C1=NC=CC=C1C([O-])=O,0,G1,A,None,None,Negative
A-4474,"InChI=1S/C5H7N/c1-2-3-4-5-6/h3-4H,2H2,1H3/b4-3-",-0.859899212,CCC=CC#N,0,G1,A,None,None,Uncharged
A-4477,"InChI=1S/C9H10N2/c1-2-4-8(5-3-1)9-10-6-7-11-9/h1-5H,6-7H2,(H,10,11)/p+1",-1.126518075,C1C[NH+]=C(N1)C1=CC=CC=C1,0,G1,A,None,None,Positive
A-4478,"InChI=1S/C12H20O2/c13-5-7-1-2-10-11-4-8(12(7)10)3-9(11)6-14/h7-14H,1-6H2",-1.25150549,OCC1CCC2C3CC(CC3CO)C12,0,G1,A,None,None,Uncharged
A-4479,"InChI=1S/C8H8O3/c9-7(8(10)11)6-4-2-1-3-5-6/h1-5,7,9H,(H,10,11)/t7-/m1/s1",-0.141666762,OC(C([O-])=O)C1=CC=CC=C1,0,G1,A,None,None,Negative
A-4480,"InChI=1S/C7H14O6/c1-12-7-6(11)5(10)4(9)3(2-8)13-7/h3-11H,2H2,1H3",0.745212549,COC1OC(CO)C(O)C(O)C1O,0.223106275,G3,A,None,None,Uncharged
A-4483,"InChI=1S/C4H6O2.C3H5ClO/c5-3-1-2-4-6;4-1-3-2-5-3/h5-6H,3-4H2;3H,1-2H2",0.777871543,OCC#CCO,1.193168397,G2,A,None,Cosolvent Buffer,Uncharged
A-4484,"InChI=1S/C5H10O/c1-5-2-3-6-4-5/h5H,2-4H2,1H3",0.090131249,CC1CCOC1,0,G1,A,None,None,Uncharged
A-4485,InChI=1S/Cr.3NO3/c;3*2-1(3)4/q+3;3*-1,0.64563055,[O-][N+]([O-])=O,0,G1,A,None,None,Negative
A-4486,"InChI=1S/C4H8OS/c1-3-6-4(2)5/h3-5H,1H2,2H3",0.005493119,CC(O)SC=C,0,G1,A,None,None,Uncharged
A-4487,"InChI=1S/C28H23N9O7S2.2Na/c29-16-6-11-21(20(30)14-16)35-32-18-7-9-19(10-8-18)34-36-26-22(45(39,40)41)12-15-13-23(46(42,43)44)27(28(38)24(15)25(26)31)37-33-17-4-2-1-3-5-17;;/h1-14,33H,29-31H2,(H,39,40,41)(H,42,43,44);;/q;2*+1/p-2/b35-32?,36-34?,37-27+;;",-0.827397585,NC1=CC=C(N=NC2=CC=C(C=C2)N=NC2=C(N)C3=C(C=C(C(=NNC4=CC=CC=C4)C3=O)S([O-])(=O)=O)C=C2S([O-])(=O)=O)C(N)=C1,0,G1,A,None,None,Negative
A-4488,"InChI=1S/C10H16N2O8.2Na/c13-7(14)3-11(4-8(15)16)1-2-12(5-9(17)18)6-10(19)20;;/h1-6H2,(H,13,14)(H,15,16)(H,17,18)(H,19,20);;/q;2*+1/p-2",-0.505418744,[O-]C(=O)CN(CCN(CC([O-])=O)CC([O-])=O)CC([O-])=O,0.013807469,G5,A,None,None,Negative
A-4489,InChI=1S/CH3NO2/c1-2(3)4/h1H3,0.233501766,C[N+]([O-])=O,0.013099117,G3,A,None,None,PureChargeSeparation
A-4490,InChI=1S/3NO3.Sm/c3*2-1(3)4;/q3*-1;+3,0.486017387,[O-][N+]([O-])=O,0.148833228,G5,A,None,None,Negative
A-4492,"InChI=1S/C6H10O/c1-4-6(3,7)5-2/h1,7H,5H2,2-3H3",0.016731992,CCC(C)(O)C#C,0.049653553,G5,A,None,None,Uncharged
A-4493,"InChI=1S/C6H14N4O2/c7-9-5(11)3-1-2-4-6(12)10-8/h1-4,7-8H2,(H,9,11)(H,10,12)",-0.232457951,NNC(=O)CCCCC(=O)NN,0,G1,A,None,None,Uncharged
A-4495,"InChI=1S/C4H10O2/c1-5-3-4-6-2/h3-4H2,1-2H3",1.045169179,COCCOC,0,G1,A,None,None,Uncharged
A-4496,InChI=1S/C4H8O2/c1-2-6-4-3-5-1/h1-4H2,1.054994515,C1COCCO1,0,G1,A,None,None,Uncharged