ID,InChI,Solubility,SMILEScurated,SD,Group,Dataset,Composition,Error,Charge
A-2257,"InChI=1S/C24H38O4/c1-5-9-13-19(7-3)17-27-23(25)21-15-11-12-16-22(21)24(26)28-18-20(8-4)14-10-6-2/h11-12,15-16,19-20H,5-10,13-14,17-18H2,1-4H3",-6.978908353,CCCCC(CC)COC(=O)C1=CC=CC=C1C(=O)OCC(CC)CCCC,0.613829359,G4,A,mono-constituent,None,Uncharged
A-2258,"InChI=1S/C12H18/c1-9(2)11-7-5-6-8-12(11)10(3)4/h5-10H,1-4H3",-6.602799271,CC(C)C1=CC=CC=C1C(C)C,0,G1,A,multi-constituent,Multi-constituent Substances,Uncharged
A-2259,"InChI=1S/C12H18/c1-9(2)11-6-5-7-12(8-11)10(3)4/h5-10H,1-4H3",-6.602799271,CC(C)C1=CC(=CC=C1)C(C)C,0,G1,A,mono-constituent,None,Uncharged
A-2260,"InChI=1S/C36H71NO3/c1-3-5-7-9-11-13-15-17-18-20-22-24-26-28-30-32-36(40)37-34(33-38)35(39)31-29-27-25-23-21-19-16-14-12-10-8-6-4-2/h17-18,34-35,38-39H,3-16,19-33H2,1-2H3,(H,37,40)/b18-17-",-6.451761881,CCCCCCCCCCCCCCCC(O)C(CO)NC(=O)CCCCCCCC=CCCCCCCCC,0,G1,A,None,None,Uncharged
A-2262,"InChI=1S/C16H32O2/c1-2-3-4-5-6-7-8-9-10-11-12-13-14-15-16(17)18/h2-15H2,1H3,(H,17,18)",-6.806908841,CCCCCCCCCCCCCCCC([O-])=O,0,G1,A,mono-constituent,None,Negative
A-2264,"InChI=1S/C12H16O2/c1-7(13)14-11-5-4-10-8-2-3-9(6-8)12(10)11/h5,8-10,12H,2-4,6H2,1H3",-3.009726571,CC(=O)OC1=CCC2C3CCC(C3)C12,0,G1,A,None,None,Uncharged
A-2267,"InChI=1S/C8H24O4Si4/c1-13(2)9-14(3,4)11-16(7,8)12-15(5,6)10-13/h1-8H3",-6.953686491,C[Si]1(C)O[Si](C)(C)O[Si](C)(C)O[Si](C)(C)O1,0.408190598,G5,A,mono-constituent,None,Uncharged
A-2268,"InChI=1S/C19H36O4/c1-3-5-7-9-11-14-18(20)22-16-13-17-23-19(21)15-12-10-8-6-4-2/h3-17H2,1-2H3",-7.516526119,CCCCCCCC(=O)OCCCOC(=O)CCCCCCC,0,G1,A,mono-constituent,None,Uncharged
A-2269,"InChI=1S/C13H22O/c1-4-5-8-12(14)11-7-6-9-13(2,3)10-11/h4,11H,1,5-10H2,2-3H3",-4.77931051,CC1(C)CCCC(C1)C(=O)CCC=C,0,G1,A,None,Non Valid pH,Uncharged
A-2270,"InChI=1S/C14H13N/c1-2-15-13-9-5-3-7-11(13)12-8-4-6-10-14(12)15/h3-10H,2H2,1H3",-6.813503151,CCN1C2=C(C=CC=C2)C2=C1C=CC=C2,0,G1,A,mono-constituent,None,Uncharged
A-2271,"InChI=1S/C22H31N3O2/c1-5-25(15-16-26-19(4)27-17-18(2)3)22-13-11-21(12-14-22)24-23-20-9-7-6-8-10-20/h6-14,18-19H,5,15-17H2,1-4H3",-7.090503766,CCN(CCOC(C)OCC(C)C)C1=CC=C(C=C1)N=NC1=CC=CC=C1,0,G1,A,mono-constituent,None,Uncharged
A-2272,"InChI=1S/4H3O4P.3Zr/c4*1-5(2,3)4;;;/h4*(H3,1,2,3,4);;;/q;;;;3*+4/p-12",-7.338158893,[Zr+4].[Zr+4].[Zr+4].OP([O-])([O-])=O.OP([O-])([O-])=O.OP([O-])([O-])=O.OP([O-])([O-])=O,1.387982075,G4,A,None,Multi-constituent Substances,Negative
A-2273,"InChI=1S/C34H26N6S2/c1-5-15-25(16-6-1)29-31(27-19-9-3-10-20-27)37-39-33(35-29)41-23-13-14-24-42-34-36-30(26-17-7-2-8-18-26)32(38-40-34)28-21-11-4-12-22-28/h1-22H,23-24H2/b14-13+",-7.025125555,C(SC1=NN=C(C2=CC=CC=C2)C(=N1)C1=CC=CC=C1)C=CCSC1=NN=C(C2=CC=CC=C2)C(=N1)C1=CC=CC=C1,0,G1,A,mono-constituent,Others,Uncharged
A-2274,"InChI=1S/C20H22O3/c1-20(2,3)16-9-5-14(6-10-16)18(21)13-19(22)15-7-11-17(23-4)12-8-15/h5-12H,13H2,1-4H3",-7.060548154,COC1=CC=C(C=C1)C(=O)C=C([O-])C1=CC=C(C=C1)C(C)(C)C,0,G1,A,mono-constituent,None,Negative
A-2277,"InChI=1S/C7H21O2Si3/c1-10(8-11(2,3)4)9-12(5,6)7/h1-7H3",-7.044345696,C[Si](O[Si](C)(C)C)O[Si](C)(C)C,0,G1,A,mono-constituent,None,Uncharged
A-2282,"InChI=1S/C28H32O15/c1-10-21(32)23(34)25(36)27(40-10)39-9-19-22(33)24(35)26(37)28(43-19)41-12-6-14(30)20-15(31)8-17(42-18(20)7-12)11-3-4-16(38-2)13(29)5-11/h3-8,10,19,21-30,32-37H,9H2,1-2H3/t10-,19+,21-,22+,23+,24-,25+,26+,27+,28+/m0/s1",-7.505541952,COC1=CC=C(C=C1O)C1=CC(=O)C2=C(O)C=C(OC3OC(COC4OC(C)C(O)C(O)C4O)C(O)C(O)C3O)C=C2O1,0,G1,A,mono-constituent,None,Uncharged
A-2283,"InChI=1S/C12H15N3O6/c16-10-13(1-7-4-19-7)11(17)15(3-9-6-21-9)12(18)14(10)2-8-5-20-8/h7-9H,1-6H2/t7-,8-,9-/m1/s1",-2.468825327,O=C1N(CC2CO2)C(=O)N(CC2CO2)C(=O)N1CC1CO1,0,G1,A,None,None,Uncharged
A-2284,"InChI=1S/C20H17N3O5/c1-28-8-4-7-23-19(26)13-14(20(23)27)16(22)12-11(15(13)21)17(24)9-5-2-3-6-10(9)18(12)25/h2-3,5-6H,4,7-8,21-22H2,1H3",-7.323792769,COCCCN1C(=O)C2=C(C1=O)C(N)=C1C(=O)C3=CC=CC=C3C(=O)C1=C2N,0.428666248,G3,A,mono-constituent,None,Uncharged
A-2287,"InChI=1S/C22H44O2/c1-2-3-4-5-6-7-8-9-10-11-12-13-14-15-16-17-18-19-20-21-22(23)24/h2-21H2,1H3,(H,23,24)",-7.32811446,CCCCCCCCCCCCCCCCCCCCCC([O-])=O,1.747425011,G2,A,mono-constituent,None,Negative
A-2288,"InChI=1S/C16H16O2/c17-16(15-11-5-2-6-12-15)18-13-7-10-14-8-3-1-4-9-14/h1-6,8-9,11-12H,7,10,13H2",-4.800973789,O=C(OCCCC1=CC=CC=C1)C1=CC=CC=C1,0,G1,A,mono-constituent,None,Uncharged
A-2289,"InChI=1S/C8H18O/c1-3-4-5-6-8(2)7-9/h8-9H,3-7H2,1-2H3",-2.528127071,CCCCCC(C)CO,0,G1,A,mono-constituent,None,Uncharged
A-2292,"InChI=1S/2C5H7O2.Pd/c2*1-4(6)3-5(2)7;/h2*3H,1-2H3;/q2*-1;+2",-7.438461097,CC(O)=CC(C)=O,0,G1,A,mono-constituent,Non Valid pH,Uncharged
A-2293,"InChI=1S/C24H10N2O4/c27-21-13-5-1-9-10-2-6-15-20-16(24(30)26-23(15)29)8-4-12(18(10)20)11-3-7-14(22(28)25-21)19(13)17(9)11/h1-8H,(H,25,27,28)(H,26,29,30)",-7.591458634,O=C1NC(=O)C2=C3C1=CC=C1C4=C5C(=CC=C6C(=O)NC(=O)C(C=C4)=C56)C(C=C2)=C31,0,G1,A,mono-constituent,None,Uncharged
A-2294,"InChI=1S/C21H15NO3/c1-12-6-8-13(9-7-12)22-16-10-11-17(23)19-18(16)20(24)14-4-2-3-5-15(14)21(19)25/h2-11,22-23H,1H3",-7.549181312,CC1=CC=C(NC2=CC=C(O)C3=C2C(=O)C2=CC=CC=C2C3=O)C=C1,0,G1,A,mono-constituent,Others,Uncharged
A-2295,"InChI=1S/H2O4S.O.Zr/c1-5(2,3)4;;/h(H2,1,2,3,4);;/q;-2;+4/p-2",-7.706047479,[Zr+4],0,G1,A,None,None,Uncharged
A-2297,"InChI=1S/C20H24O3/c1-3-20(18(21)9-10-19(20)22)12-11-14-5-4-6-15-13-16(23-2)7-8-17(14)15/h7-8,11,13H,3-6,9-10,12H2,1-2H3/b14-11+",-4.172504242,CCC1(CC=C2CCCC3=CC(OC)=CC=C23)C(=O)CCC1=O,0,G1,A,mono-constituent,None,Uncharged
A-2298,"InChI=1S/C18H38/c1-3-5-7-9-11-13-15-17-18-16-14-12-10-8-6-4-2/h3-18H2,1-2H3",-7.627539949,CCCCCCCCCCCCCCCCCC,0,G1,A,mono-constituent,None,Uncharged
A-2299,"InChI=1S/C13H24O2/c1-10(2)11-12(3,4)9-14-13(15-11)7-5-6-8-13/h10-11H,5-9H2,1-4H3",-3.524243771,CC(C)C1OC2(CCCC2)OCC1(C)C,0,G1,A,None,Non Valid pH,Uncharged
A-2301,"InChI=1S/C48H66N6O6/c1-7-13-16-34(10-4)31-58-43(55)37-19-25-40(26-20-37)49-46-52-47(50-41-27-21-38(22-28-41)44(56)59-32-35(11-5)17-14-8-2)54-48(53-46)51-42-29-23-39(24-30-42)45(57)60-33-36(12-6)18-15-9-3/h19-30,34-36H,7-18,31-33H2,1-6H3,(H3,49,50,51,52,53,54)",-8.216478376,CCCCC(CC)COC(=O)C1=CC=C(NC2=NC(NC3=CC=C(C=C3)C(=O)OCC(CC)CCCC)=NC(NC3=CC=C(C=C3)C(=O)OCC(CC)CCCC)=N2)C=C1,0.382321596,G5,A,mono-constituent,None,Uncharged
A-2304,"InChI=1S/C17H34O2/c1-3-4-5-6-7-8-9-10-11-12-13-14-15-16-17(18)19-2/h3-16H2,1-2H3",-7.830038235,CCCCCCCCCCCCCCCC(=O)OC,0,G1,A,mono-constituent,None,Uncharged
A-2307,"InChI=1S/C21H23O8P/c22-9-11-27-20(24)13-15(21(25)28-12-10-23)14-30(26)19-8-4-2-6-17(19)16-5-1-3-7-18(16)29-30/h1-8,15,22-23H,9-14H2",-4.461779562,OCCOC(=O)CC(CP1(=O)OC2=CC=CC=C2C2=CC=CC=C12)C(=O)OCCO,0,G1,A,mono-constituent,None,Uncharged
A-2308,"InChI=1S/C13H14N2/c1-13(2)14-10-7-3-5-9-6-4-8-11(15-13)12(9)10/h3-8,14-15H,1-2H3",-2.929898895,CC1(C)NC2=CC=CC3=CC=CC(N1)=C23,0,G1,A,mono-constituent,Non Valid pH,Uncharged
A-2309,"InChI=1S/C18H36O2.K/c1-17(2)15-13-11-9-7-5-3-4-6-8-10-12-14-16-18(19)20;/h17H,3-16H2,1-2H3,(H,19,20);/q;+1/p-1",-8.146901524,CC(C)CCCCCCCCCCCCCCC([O-])=O,3.870145136,G4,A,UVCB,None,Negative
A-2312,"InChI=1S/C27H31N3O/c1-3-30(26-12-9-25(21(2)17-26)18-22(19-28)20-29)15-16-31-27-13-10-24(11-14-27)23-7-5-4-6-8-23/h9-14,17-18,23H,3-8,15-16H2,1-2H3",-8.386094856,CCN(CCOC1=CC=C(C=C1)C1CCCCC1)C1=CC=C(C=C(C#N)C#N)C(C)=C1,0.309045391,G5,A,mono-constituent,None,Uncharged
A-2313,"InChI=1S/C28H42O2/c1-25(2,3)17-13-19(23(29)21(15-17)27(7,8)9)20-14-18(26(4,5)6)16-22(24(20)30)28(10,11)12/h13-16,29-30H,1-12H3",-6.889187497,CC(C)(C)C1=CC(=C(O)C(=C1)C1=C(O)C(=CC(=C1)C(C)(C)C)C(C)(C)C)C(C)(C)C,0.862137935,G2,A,None,None,Uncharged
A-2317,"InChI=1S/C17H14N2O2/c1-21-16-9-5-4-8-14(16)18-19-17-13-7-3-2-6-12(13)10-11-15(17)20/h2-11,18H,1H3/b19-17-",-8.926016432,COC1=CC=CC=C1NN=C1C(=O)C=CC2=CC=CC=C12,0,G1,A,mono-constituent,None,Uncharged
A-2318,"InChI=1S/C19H38O2/c1-3-4-5-6-7-8-9-10-11-12-13-14-15-16-17-18-19(20)21-2/h3-18H2,1-2H3",-8.997839085,CCCCCCCCCCCCCCCCCC(=O)OC,0,G1,A,mono-constituent,None,Uncharged
A-2319,"InChI=1S/C28H46O4/c1-23(2)17-11-7-5-9-15-21-31-27(29)25-19-13-14-20-26(25)28(30)32-22-16-10-6-8-12-18-24(3)4/h13-14,19-20,23-24H,5-12,15-18,21-22H2,1-4H3",-9.419539808,CC(C)CCCCCCCOC(=O)C1=CC=CC=C1C(=O)OCCCCCCCC(C)C,0,G1,A,multi-constituent,Prediction Estimation,Uncharged
A-2320,InChI=1S/5O.2V,-2.303614127,O=[V](=O)O[V](=O)=O,0,G1,A,mono-constituent,None,Uncharged
A-2321,"InChI=1S/C21H32O9/c1-5-18(22)28-12-9-25-15-21(8-4,16-26-10-13-29-19(23)6-2)17-27-11-14-30-20(24)7-3/h5-7H,1-3,8-17H2,4H3",-2.687445856,CCC(COCCOC(=O)C=C)(COCCOC(=O)C=C)COCCOC(=O)C=C,0.912447327,G2,A,UVCB,None,Uncharged
A-2322,"InChI=1S/C18H15NO2/c20-15-8-4-13(5-9-15)18(17-3-1-2-12-19-17)14-6-10-16(21)11-7-14/h1-12,18,20-21H",-4.523907797,OC1=CC=C(C=C1)C(C1=CC=C(O)C=C1)C1=CC=CC=N1,0,G1,A,mono-constituent,Non Valid pH,Uncharged
A-2324,"InChI=1S/5H3O4P.5H2O.5O.6V/c5*1-5(2,3)4;;;;;;;;;;;;;;;;/h5*(H3,1,2,3,4);5*1H2;;;;;;;;;;;/q;;;;;;;;;;5*-2;;;;;;/p-20",-1.350363781,OP([O-])([O-])=O,0,G1,A,mono-constituent,Multi-constituent Substances,Negative
A-2326,"InChI=1S/CH2O3.Ag/c2-1(3)4;/h(H2,2,3,4);",-3.452021679,OC([O-])=O,0,G1,A,mono-constituent,None,Negative
A-2329,"InChI=1S/C12H27O4P.K/c1-2-3-4-5-6-7-8-9-10-11-12-16-17(13,14)15;/h2-12H2,1H3,(H2,13,14,15);/q;+1/p-1",-3.784486057,CCCCCCCCCCCCOP([O-])([O-])=O,0,G1,A,None,None,Negative
A-2331,InChI=1S/Al.3FH/h;3*1H/q+3;;;/p-3,-4.199879315,[Al+3],0,G1,A,None,None,Uncharged
A-2334,"InChI=1S/C20H14O3/c21-19(17-8-4-5-9-18(17)20(22)23)16-12-10-15(11-13-16)14-6-2-1-3-7-14/h1-13H,(H,22,23)",-4.828233467,[O-]C(=O)C1=CC=CC=C1C(=O)C1=CC=C(C=C1)C1=CC=CC=C1,0,G1,A,mono-constituent,None,Negative
A-2335,InChI=1S/C4H8N8O8/c13-9(14)5-1-6(10(15)16)3-8(12(19)20)4-7(2-5)11(17)18/h1-4H2,-4.82511681,[O-][N+](=O)N1CN(CN(CN(C1)[N+]([O-])=O)[N+]([O-])=O)[N+]([O-])=O,0.080611092,G5,A,mono-constituent,None,PureChargeSeparation
A-2336,"InChI=1S/5C17H26O/c5*1-13-7-5-6-8-14(2)10-12-17(16(4)18)15(3)11-9-13/h7-8H,5-6,9-12H2,1-4H3;2*7-8,11,17H,5-6,9-10,12H2,1-4H3;2*7-8,17H,3,5-6,9-12H2,1-2,4H3/b13-7-,14-8-,17-15+;;;;/t;4*17-/m.1010/s1",-5.449126022,CC(=O)C1CCC(C)=CCCC=C(C)CC=C1C,0,G1,A,None,None,Uncharged
A-2337,"InChI=1S/C10H16N4/c1-5-9(3,7-11)13-14-10(4,6-2)8-12/h5-6H2,1-4H3",-2.696191526,CCC(C)(N=NC(C)(CC)C#N)C#N,0,G1,A,mono-constituent,None,Uncharged
A-2338,"InChI=1S/C6H15NO3.C5H9NO4/c8-4-1-7(2-5-9)3-6-10;6-3(5(9)10)1-2-4(7)8/h8-10H,1-6H2;3H,1-2,6H2,(H,7,8)(H,9,10)/t;3-/m.0/s1",0.111437809,[NH3+]C(CCC([O-])=O)C([O-])=O,0,G1,A,UVCB,None,Zwitterion
A-2342,"InChI=1S/C23H16N4O8S/c24-26-27-25-17-10-8-14-15(21(17)30)2-1-3-19(14)36(33,34)35-13-6-4-12(5-7-13)20(29)16-9-11-18(28)23(32)22(16)31/h1-7,9-11,24,28,31-32H,8H2",-5.105290731,OC1=CC=C(C(=O)C2=CC=C(OS(=O)(=O)C3=CC=CC4=C([O-])C(=CC=C34)N=NN=N)C=C2)C(O)=C1O,0,G1,A,None,None,Negative
A-2345,"InChI=1S/C4H5Cl/c1-3-4(2)5/h3H,1-2H2",-2.550925455,ClC(=C)C=C,0,G1,A,mono-constituent,None,Uncharged
A-2346,"InChI=1S/C5H8O4S2/c1-3-10(6,7)5-11(8,9)4-2/h3-4H,1-2,5H2",-3.91989545,C=CS(=O)(=O)CS(=O)(=O)C=C,0,G1,A,mono-constituent,Non Valid pH,Uncharged
A-2347,"InChI=1S/CF4/c2-1(3,4)5",-3.670339628,FC(F)(F)F,0,G1,A,mono-constituent,None,Uncharged
A-2348,"InChI=1S/C15H16O/c1-15(2,12-6-4-3-5-7-12)13-8-10-14(16)11-9-13/h3-11,16H,1-2H3",-4.096484707,CC(C)(C1=CC=CC=C1)C1=CC=C(O)C=C1,0,G1,A,mono-constituent,None,Uncharged
A-2350,"InChI=1S/C7H7Cl2N3O2S/c1-2-3-15-7-10-5(8)4(12(13)14)6(9)11-7/h2-3H2,1H3",-4.386944624,CCCSC1=NC(Cl)=C(C(Cl)=N1)[N+]([O-])=O,0,G1,A,mono-constituent,None,PureChargeSeparation
A-2351,"InChI=1S/C20H8Br4O5.2Na/c21-11-5-9-13(7-3-1-2-4-8(7)20(27)28)10-6-12(22)17(26)15(24)19(10)29-18(9)14(23)16(11)25;;/h1-6,25H,(H,27,28);;/q;2*+1/p-2",-0.840017595,[O-]C(=O)C1=CC=CC=C1C1=C2C=C(Br)C(=O)C(Br)=C2OC2=C(Br)C([O-])=C(Br)C=C12,0,G1,A,None,None,Negative
A-2352,"InChI=1S/C2H6O3S/c1-5-6(2,3)4/h1-2H3",-0.041921413,COS(C)(=O)=O,0.150514998,G3,A,mono-constituent,None,Uncharged
A-2355,"InChI=1S/C24H38O2.C24H36O2.C24H34O2/c3*1-2-3-4-5-6-7-8-9-10-11-12-13-14-16-22-17-15-18-23(19-22)25-20-24-21-26-24/h7-8,15,17-19,24H,2-6,9-14,16,20-21H2,1H3;4-5,7-8,15,17-19,24H,2-3,6,9-14,16,20-21H2,1H3;2,4-5,7-8,15,17-19,24H,1,3,6,9-14,16,20-21H2/b8-7+;2*5-4+,8-7+",-6.079851689,CCCCCCC=CCCCCCCCC1=CC=CC(OCC2CO2)=C1,0,G1,A,None,Multi-constituent Substances,Uncharged
A-2356,"InChI=1S/C12H11N.C3H6O.CH2O/c1-3-7-11(8-4-1)13-12-9-5-2-6-10-12;1-3(2)4;1-2/h1-10,13H;1-2H3;1H2",-5.969586401,N(C1=CC=CC=C1)C1=CC=CC=C1,0,G1,A,UVCB,Cosolvent Buffer,Uncharged
A-2357,"InChI=1S/C19H48O6Si4/c1-18(20-3)17-22-19(2)16-21-14-13-15-29(12,24-27(7,8)9)25-28(10,11)23-26(4,5)6/h18-19H,13-17H2,1-12H3",-6.287739939,COC(C)COC(C)COCCC[Si](C)(O[Si](C)(C)C)O[Si](C)(C)O[Si](C)(C)C,0,G1,A,None,None,Uncharged
A-2359,"InChI=1S/C26H40Cl2O5/c1-3-5-6-7-8-9-10-11-12-13-14-15-16-17-18-32-26(30)33-24-22(27)19-21(20-23(24)28)25(29)31-4-2/h19-20H,3-18H2,1-2H3",-7.133803789,CCCCCCCCCCCCCCCCOC(=O)OC1=C(Cl)C=C(C=C1Cl)C(=O)OCC,0,G1,A,mono-constituent,None,Uncharged
A-2361,"InChI=1S/2C18H34O2.Cu/c2*1-2-3-4-5-6-7-8-9-10-11-12-13-14-15-16-17-18(19)20;/h2*9-10H,2-8,11-17H2,1H3,(H,19,20);/q;;+2/p-2/b2*10-9-;",-11.99893786,CCCCCCCCC=CCCCCCCCC([O-])=O,0,G1,A,mono-constituent,None,Negative
A-2362,"InChI=1S/C11H19NO2.ClH/c13-11(14)10-6-9(7-12-10)8-4-2-1-3-5-8;/h8-10,12H,1-7H2,(H,13,14);1H/t9-,10+;/m1./s1",0.631268384,[O-]C(=O)C1CC(C[NH2+]1)C1CCCCC1,0,G1,A,None,Non Valid pH,Zwitterion
A-2363,"InChI=1S/C6H7NO/c8-6-4-1-2-5(3-4)7-6/h1-2,4-5H,3H2,(H,7,8)",0.936160808,O=C1NC2CC1C=C2,0,G1,A,mono-constituent,None,Uncharged
A-2367,"InChI=1S/C12H16/c1-3-7-11(8-4-1)12-9-5-2-6-10-12/h1,3-4,7-8,12H,2,5-6,9-10H2",-4.341502278,C1CCC(CC1)C1=CC=CC=C1,0,G1,A,mono-constituent,Non Valid pH,Uncharged
A-2371,"InChI=1S/C22H24N6O18S6.2K.2Na/c23-20-17(27-26-16-6-5-15(11-18(16)49(33,34)35)48(31,32)10-8-46-52(42,43)44)12-19(50(36,37)38)21(24)22(20)28-25-13-1-3-14(4-2-13)47(29,30)9-7-45-51(39,40)41;;;;/h1-6,11-12H,7-10,23-24H2,(H,33,34,35)(H,36,37,38)(H,39,40,41)(H,42,43,44);;;;/q;4*+1/p-4",-0.289144621,NC1=C(C=C(C(N)=C1N=NC1=CC=C(C=C1)S(=O)(=O)CCOS([O-])(=O)=O)S([O-])(=O)=O)N=NC1=CC=C(C=C1S([O-])(=O)=O)S(=O)(=O)CCOS([O-])(=O)=O,0,G1,A,None,None,Negative
A-2372,"InChI=1S/C10H12N3.Na/c1-2-3-4-8-5-6-9-10(7-8)12-13-11-9;/h5-7H,2-4H2,1H3;/q-1;+1",0.404025656,CCCCC1=CC=C2N=NNC2=C1,0,G1,A,mono-constituent,None,Uncharged
A-2377,"InChI=1S/C10H16/c1-7-4-5-8-6-9(7)10(8,2)3/h4,8-9H,5-6H2,1-3H3",-3.772570424,CC1=CCC2CC1C2(C)C,0.698272432,G4,A,multi-constituent,None,Uncharged
A-2378,"InChI=1S/C21H24O4/c1-21(2,15-3-7-17(8-4-15)22-11-19-13-24-19)16-5-9-18(10-6-16)23-12-20-14-25-20/h3-10,19-20H,11-14H2,1-2H3",-4.799620032,CC(C)(C1=CC=C(OCC2CO2)C=C1)C1=CC=C(OCC2CO2)C=C1,0.092741092,G5,A,mono-constituent,Non Valid pH,Uncharged
A-2379,"InChI=1S/C18H39N/c1-4-5-6-7-8-9-10-11-12-13-14-15-16-17-18-19(2)3/h4-18H2,1-3H3",-4.652434914,CCCCCCCCCCCCCCCC[NH+](C)C,0.925243029,G4,A,UVCB,None,Positive
A-2380,"InChI=1S/C13H20O/c1-8(2)12-6-10-5-11(7-14)13(12)4-9(10)3/h7-8,11-13H,4-6H2,1-3H3",-3.850854284,CC(C)C1CC2=C(C)CC1C(C2)C=O,0,G1,A,multi-constituent,None,Uncharged
A-2382,"InChI=1S/C14H31N/c1-4-5-6-7-8-9-10-11-12-13-14-15(2)3/h4-14H2,1-3H3",-4.426122744,CCCCCCCCCCCC[NH+](C)C,0.403653114,G5,A,UVCB,None,Positive
A-2384,"InChI=1S/C31H24ClN7O13S4.4Na/c1-2-39(17-7-4-3-5-8-17)31-35-29(32)34-30(36-31)33-22-15-18(53(41,42)43)13-16-14-24(55(47,48)49)26(27(40)25(16)22)38-37-21-12-11-19-20(28(21)56(50,51)52)9-6-10-23(19)54(44,45)46;;;;/h3-15,40H,2H2,1H3,(H,41,42,43)(H,44,45,46)(H,47,48,49)(H,50,51,52)(H,33,34,35,36);;;;/q;4*+1/p-4",-0.50252635,CCN(C1=CC=CC=C1)C1=NC(Cl)=NC(NC2=CC(=CC3=C2C(=O)C(=NNC2=C(C4=CC=CC(=C4C=C2)S([O-])(=O)=O)S([O-])(=O)=O)C(=C3)S([O-])(=O)=O)S([O-])(=O)=O)=N1,0.026539222,G3,A,None,None,Negative
A-2385,InChI=1S/C12H8Cl2O/c13-9-4-6-11(7-5-9)15-12-3-1-2-10(14)8-12/h1-8H,-5.387355317,ClC1=CC=C(OC2=CC=CC(Cl)=C2)C=C1,0.332758964,G5,A,mono-constituent,None,Uncharged
A-2387,"InChI=1S/C61H112O13/c1-13-19-34-51(16-4)57(65)72-45-60(42-69-54(62)37-28-22-25-31-48(7)8,43-70-55(63)38-29-23-26-32-49(9)10)40-68-41-61(46-73-58(66)52(17-5)35-20-14-2,47-74-59(67)53(18-6)36-21-15-3)44-71-56(64)39-30-24-27-33-50(11)12/h48-53H,13-47H2,1-12H3",-7.323686796,CCCCC(CC)C(=O)OCC(COCC(COC(=O)CCCCCC(C)C)(COC(=O)C(CC)CCCC)COC(=O)C(CC)CCCC)(COC(=O)CCCCCC(C)C)COC(=O)CCCCCC(C)C,0,G1,A,None,Multi-constituent Substances,Uncharged
A-2388,"InChI=1S/C60H77N27O14S4.C3H6O3/c1-7-87(8-2)19-9-18-65-52-76-57(70-36-10-14-38(15-11-36)83-85-48-44(104(96,97)98)22-34-20-40(102(90,91)92)24-42(46(34)50(48)88)72-59-78-53(66-26-30(3)61)74-54(79-59)67-27-31(4)62)82-58(77-52)71-37-12-16-39(17-13-37)84-86-49-45(105(99,100)101)23-35-21-41(103(93,94)95)25-43(47(35)51(49)89)73-60-80-55(68-28-32(5)63)75-56(81-60)69-29-33(6)64;1-2(4)3(5)6/h10-17,20-25,30-33,88-89H,7-9,18-19,26-29,61-64H2,1-6H3,(H,90,91,92)(H,93,94,95)(H,96,97,98)(H,99,100,101)(H3,65,70,71,76,77,82)(H3,66,67,72,74,78,79)(H3,68,69,73,75,80,81);2,4H,1H3,(H,5,6)",-0.794219043,CC[NH+](CC)CCCNC1=NC(NC2=CC=C(C=C2)N=NC2=C(O)C3=C(NC4=NC(NCC(C)[NH3+])=NC(NCC(C)[NH3+])=N4)C=C(C=C3C=C2S([O-])(=O)=O)S([O-])(=O)=O)=NC(NC2=CC=C(C=C2)N=NC2=C(O)C3=C(NC4=NC(NCC(C)[NH3+])=NC(NCC(C)[NH3+])=N4)C=C(C=C3C=C2S([O-])(=O)=O)S([O-])(=O)=O)=N1,0,G1,A,None,Cosolvent Buffer,Zwitterion
A-2390,"InChI=1S/C20H40N4O3.ClH/c1-3-5-6-7-8-9-10-11-12-15-18(25)24-17(19(26)27-4-2)14-13-16-23-20(21)22;/h17H,3-16H2,1-2H3,(H,24,25)(H4,21,22,23);1H/t17-;/m0./s1",-0.231611963,CCCCCCCCCCCC(=O)NC(CCCNC(N)=[NH2+])C(=O)OCC,0,G1,A,mono-constituent,Non Valid pH,Positive
A-2392,"InChI=1S/C14H22O/c1-5-12(15)8-9-13-11(2)7-6-10-14(13,3)4/h7-9,13H,5-6,10H2,1-4H3/b9-8+",-3.992340979,CCC(=O)C=CC1C(C)=CCCC1(C)C,0,G1,A,multi-constituent,None,Uncharged
A-2393,"InChI=1S/C14H22O/c1-10-7-6-8-14(4,5)13(10)9-11(2)12(3)15/h7,9,13H,6,8H2,1-5H3/b11-9-",-3.992340979,CC(=O)C(C)=CC1C(C)=CCCC1(C)C,0.059049656,G3,A,None,None,Uncharged
A-2394,"InChI=1S/C12H22O2/c1-8(2)11-6-5-9(3)7-12(11)14-10(4)13/h8-9,11-12H,5-7H2,1-4H3/t9-,11+,12-/m1/s1",-3.97511656,CC(C)C1CCC(C)CC1OC(C)=O,0,G1,A,mono-constituent,None,Uncharged
A-2395,"InChI=1S/C14H16N2O4/c1-9(17)7-13(19)15-11-3-5-12(6-4-11)16-14(20)8-10(2)18/h3-6H,7-8H2,1-2H3,(H,15,19)(H,16,20)",-3.12750109,CC(=O)CC(=O)NC1=CC=C(NC(=O)CC(C)=O)C=C1,0.101664339,G3,A,mono-constituent,None,Uncharged
A-2397,"InChI=1S/C17H36NO2.ClH/c1-5-6-7-8-9-10-11-12-13-14-17(19)20-16-15-18(2,3)4;/h5-16H2,1-4H3;1H/q+1;/p-1",-2.211100306,CCCCCCCCCCCC(=O)OCC[N+](C)(C)C,0,G1,A,mono-constituent,None,Positive
A-2401,"InChI=1S/C14H12O2/c15-14(13-9-5-2-6-10-13)16-11-12-7-3-1-4-8-12/h1-10H,11H2",-4.177624494,O=C(OCC1=CC=CC=C1)C1=CC=CC=C1,0,G1,A,mono-constituent,None,Uncharged
A-2402,"InChI=1S/C12H10O2S/c13-15(14,11-7-3-1-4-8-11)12-9-5-2-6-10-12/h1-10H",-4.192879941,O=S(=O)(C1=CC=CC=C1)C1=CC=CC=C1,0,G1,A,mono-constituent,None,Uncharged
A-2403,"InChI=1S/C7H11NO2/c1-2-7(9)8-3-5-10-6-4-8/h2H,1,3-6H2",0.850257585,C=CC(=O)N1CCOCC1,0,G1,A,mono-constituent,None,Uncharged
A-2404,"InChI=1S/C4H10O2/c1-4(5)3-6-2/h4-5H,3H2,1-2H3",1.045169179,COCC(C)O,0,G1,A,mono-constituent,None,Uncharged
A-2407,"InChI=1S/C20H12O5.2Na/c21-11-5-7-15-17(9-11)25-18-10-12(22)6-8-16(18)19(15)13-3-1-2-4-14(13)20(23)24;;/h1-10,21H,(H,23,24);;/q;2*+1/p-2",-1.575505364,[O-]C(=O)C1=CC=CC=C1C1=C2C=CC(=O)C=C2OC2=CC([O-])=CC=C12,1.344090821,G4,A,None,None,Negative
A-2409,InChI=1S/Mo.H3N.H2O.O/h;1H3;1H2;/q;;;-2/p+1,-1.170241174,[Mo],0,G1,A,None,None,Uncharged
A-2411,"InChI=1S/C2H4O2S/c3-2(4)1-5/h5H,1H2,(H,3,4)",-1.964349215,[O-]C(=O)CS,1.500024607,G2,A,mono-constituent,None,Negative
A-2412,"InChI=1S/C10H20O2.C8H7N/c1-9(6-8-11)5-4-7-10(2,3)12;1-2-4-8-7(3-1)5-6-9-8/h8-9,12H,4-7H2,1-3H3;1-6,9H",-4.92245094,CC(CCCC(C)(C)O)CC=O,0,G1,A,UVCB,Cosolvent Buffer,Uncharged
A-2413,"InChI=1S/C40H76O4/c1-3-5-7-9-11-13-15-17-19-21-23-25-27-29-31-33-37-43-39(41)35-36-40(42)44-38-34-32-30-28-26-24-22-20-18-16-14-12-10-8-6-4-2/h35-36H,3-34,37-38H2,1-2H3/b36-35+",-7.094152366,CCCCCCCCCCCCCCCCCCOC(=O)C=CC(=O)OCCCCCCCCCCCCCCCCCC,0,G1,A,UVCB,Multi-constituent Substances,Uncharged
A-2414,InChI=1S/In.3NO3.H2O/c;3*2-1(3)4;/h;;;;1H2/q+3;3*-1;,-2.503579611,[O-][N+]([O-])=O,0,G1,A,None,None,Negative