ID,InChI,Solubility,SMILEScurated,SD,Group,Dataset,Composition,Error,Charge
A-1339,"InChI=1S/C15H24O2/c1-14(2,3)11-7-10(9-16)8-12(13(11)17)15(4,5)6/h7-8,16-17H,9H2,1-6H3",-4.012782104,CC(C)(C)C1=CC(CO)=CC(=C1O)C(C)(C)C,0,G1,A,mono-constituent,Non Valid pH,Uncharged
A-1341,"InChI=1S/C13H20O/c1-12(2)8-10-14-11-9-13-6-4-3-5-7-13/h3-7,12H,8-11H2,1-2H3",-3.933735783,CC(C)CCOCCC1=CC=CC=C1,0,G1,A,mono-constituent,None,Uncharged
A-1343,"InChI=1S/C11H8O2/c12-7-10-9-4-2-1-3-8(9)5-6-11(10)13/h1-7,13H",-3.89356759,OC1=C(C=O)C2=CC=CC=C2C=C1,0,G1,A,mono-constituent,None,Uncharged
A-1345,"InChI=1S/C4H6N6O/c5-2-1(10-11)3(6)9-4(7)8-2/h(H6,5,6,7,8,9)",-3.845472951,NC1=NC(N)=C(N=O)C(N)=N1,0,G1,A,mono-constituent,None,Uncharged
A-1346,"InChI=1S/C3H4Cl2/c4-2-1-3-5/h1-2H,3H2/b2-1-",-1.706753006,ClCC=CCl,0.173794953,G5,A,mono-constituent,Non Valid pH,Uncharged
A-1347,"InChI=1S/C21H16ClF3N4O3/c1-26-19(30)18-11-15(8-9-27-18)32-14-5-2-12(3-6-14)28-20(31)29-13-4-7-17(22)16(10-13)21(23,24)25/h2-11H,1H3,(H,26,30)(H2,28,29,31)",-6.667295084,CNC(=O)C1=CC(OC2=CC=C(NC(=O)NC3=CC=C(Cl)C(=C3)C(F)(F)F)C=C2)=CC=N1,0,G1,A,mono-constituent,None,Uncharged
A-1348,"InChI=1S/C9H12O3/c1-11-6-7-3-4-8(10)9(5-7)12-2/h3-5,10H,6H2,1-2H3",-1.893447681,COCC1=CC=C(O)C(OC)=C1,0,G1,A,mono-constituent,None,Uncharged
A-1349,"InChI=1S/C12H22O3/c1-3-4-5-6-11-9-14-8-7-12(11)15-10(2)13/h11-12H,3-9H2,1-2H3",-2.998795888,CCCCCC1COCCC1OC(C)=O,0,G1,A,multi-constituent,None,Uncharged
A-1350,"InChI=1S/C12H12N4/c13-9-6-7-12(11(14)8-9)16-15-10-4-2-1-3-5-10/h1-8H,13-14H2",-2.997665561,NC1=CC=C(N=NC2=CC=CC=C2)C(N)=C1,0,G1,A,mono-constituent,None,Uncharged
A-1351,"InChI=1S/C11H16O2/c1-11(2,3)9-7-8(13-4)5-6-10(9)12/h5-7,12H,1-4H3",-2.927488442,COC1=CC=C(O)C(=C1)C(C)(C)C,0,G1,A,mono-constituent,None,Uncharged
A-1352,"InChI=1S/C9H18N2O/c1-3-10-4-2-9(1)11-5-7-12-8-6-11/h9-10H,1-8H2",-2.902722822,C1CC(CC[NH2+]1)N1CCOCC1,0,G1,A,mono-constituent,Non Valid pH,Positive
A-1354,"InChI=1S/C10H24O3Si/c1-6-11-14(12-7-2,13-8-3)9-10(4)5/h10H,6-9H2,1-5H3",-3.016846171,CCO[Si](CC(C)C)(OCC)OCC,0.195918705,G3,A,mono-constituent,Unstable,Uncharged
A-1355,"InChI=1S/C7H5NO5/c9-3-4-1-5(8(12)13)7(11)6(10)2-4/h1-3,10-11H",-1.937833911,OC1=CC(C=O)=CC(=C1[O-])[N+]([O-])=O,0,G1,A,mono-constituent,Non Valid pH,Negative
A-1357,"InChI=1S/C12H16O2/c1-4-14-11(13)12(2,3)10-8-6-5-7-9-10/h5-9H,4H2,1-3H3",-3.045838317,CCOC(=O)C(C)(C)C1=CC=CC=C1,0,G1,A,mono-constituent,None,Uncharged
A-1360,"InChI=1S/C7H8N2O2/c1-5-2-3-6(8)7(4-5)9(10)11/h2-4H,8H2,1H3",-1.860061225,CC1=CC=C(N)C(=C1)[N+]([O-])=O,0,G1,A,mono-constituent,None,PureChargeSeparation
A-1361,InChI=1S/CS2/c2-1-3,-1.559422096,S=C=S,0.13050191,G5,A,mono-constituent,None,Uncharged
A-1362,"InChI=1S/C8H8O2/c1-10-8(9)7-5-3-2-4-6-7/h2-6H,1H3",-1.811798351,COC(=O)C1=CC=CC=C1,0.019100825,G3,A,mono-constituent,None,Uncharged
A-1363,"InChI=1S/C10H22O2/c1-4-5-6-7-8-9-10(11-2)12-3/h10H,4-9H2,1-3H3",-2.918005419,CCCCCCCC(OC)OC,0,G1,A,mono-constituent,None,Uncharged
A-1364,"InChI=1S/C8H20N4/c1-2-10-5-6-12-8-7-11-4-3-9-1/h9-12H,1-8H2",-0.031020416,C1C[NH2+]CCNCC[NH2+]CCN1,0,G1,A,mono-constituent,None,Positive
A-1366,"InChI=1S/C11H20O/c1-2-3-4-5-6-7-8-9-10-11-12/h2,11H,1,3-10H2",-3.8931862,C=CCCCCCCCCC=O,0,G1,A,mono-constituent,None,Uncharged
A-1367,"InChI=1S/C30H56N2O4.C21H39NO4/c1-27(2)19-23(20-28(3,4)31(27)9)35-25(33)17-15-13-11-12-14-16-18-26(34)36-24-21-29(5,6)32(10)30(7,8)22-24;1-20(2)15-17(16-21(3,4)22(20)5)26-19(24)14-12-10-8-7-9-11-13-18(23)25-6/h23-24H,11-22H2,1-10H3;17H,7-16H2,1-6H3",-4.611221235,C[NH+]1C(C)(C)CC(CC1(C)C)OC(=O)CCCCCCCCC(=O)OC1CC(C)(C)[NH+](C)C(C)(C)C1,0.070888902,G3,A,multi-constituent,None,Positive
A-1370,"InChI=1S/C13H18O2/c1-9(2)8-11-4-6-12(7-5-11)10(3)13(14)15/h4-7,9-10H,8H2,1-3H3,(H,14,15)",-3.992248355,CC(C)CC1=CC=C(C=C1)C(C)C([O-])=O,0.317750864,G5,A,mono-constituent,None,Negative
A-1371,"InChI=1S/ClHO4.Na/c2-1(3,4)5;/h(H,2,3,4,5);/q;+1/p-1",-1.766528496,[O-][Cl](=O)(=O)=O,0,G1,A,mono-constituent,None,Negative
A-1376,"InChI=1S/C9H17N5S/c1-5-10-7-12-8(11-6(2)3)14-9(13-7)15-4/h6H,5H2,1-4H3,(H2,10,11,12,13,14)",-3.047039957,CCNC1=NC(NC(C)C)=NC(SC)=N1,0.016534655,G5,A,mono-constituent,None,Uncharged
A-1377,"InChI=1S/C9H10O2/c1-7(10)8-4-3-5-9(6-8)11-2/h3-6H,1-2H3",-1.869107387,COC1=CC=CC(=C1)C(C)=O,0.072145199,G3,A,mono-constituent,None,Uncharged
A-1381,"InChI=1S/C7H6N2/c1-2-4-7-6(3-1)8-5-9-7/h1-5H,(H,8,9)",-1.769197233,N1C=NC2=CC=CC=C12,0,G1,A,mono-constituent,None,Uncharged
A-1382,"InChI=1S/C3H3N3O3/c7-1-4-2(8)6-3(9)5-1/h(H3,4,5,6,7,8,9)",-1.807646076,O=C1NC(=O)[N-]C(=O)N1,0.223517713,G5,A,mono-constituent,None,Negative
A-1383,"InChI=1S/C10H11ClN2O/c11-6-3-7-13-9-5-2-1-4-8(9)12-10(13)14/h1-2,4-5H,3,6-7H2,(H,12,14)",-3.020394269,ClCCCN1C(=O)NC2=CC=CC=C12,0,G1,A,mono-constituent,None,Uncharged
A-1385,InChI=1S/C5H4ClN/c6-5-3-1-2-4-7-5/h1-4H,-0.754145669,ClC1=CC=CC=N1,0,G1,A,mono-constituent,None,Uncharged
A-1387,"InChI=1S/C6H4Cl2O/c7-4-1-2-5(8)6(9)3-4/h1-3,9H",-1.911165602,OC1=CC(Cl)=CC=C1Cl,0,G1,A,mono-constituent,None,Uncharged
A-1388,"InChI=1S/C32H25N7O14S4.2Cu.2Na/c33-54(44,45)19-3-7-25(40)23(13-19)36-38-29-27(56(48,49)50)11-15-9-17(1-5-21(15)31(29)42)35-18-2-6-22-16(10-18)12-28(57(51,52)53)30(32(22)43)39-37-24-14-20(55(34,46)47)4-8-26(24)41;;;;/h1-14,35,40-43H,(H2,33,44,45)(H2,34,46,47)(H,48,49,50)(H,51,52,53);;;;/q;2*+2;2*+1/p-6",-2.710489277,NS(=O)(=O)C1=CC=C([O-])C(=C1)N=NC1=C(O)C2=CC=C(NC3=CC4=CC(=C(N=NC5=CC(=CC=C5[O-])S(N)(=O)=O)C(O)=C4C=C3)S([O-])(=O)=O)C=C2C=C1S([O-])(=O)=O,0,G1,A,mono-constituent,None,Negative
A-1390,"InChI=1S/C26H50O4/c1-5-9-17-23(7-3)21-29-25(27)19-15-13-11-12-14-16-20-26(28)30-22-24(8-4)18-10-6-2/h23-24H,5-22H2,1-4H3",-3.329074326,CCCCC(CC)COC(=O)CCCCCCCCC(=O)OCC(CC)CCCC,0,G1,A,mono-constituent,None,Uncharged
A-1391,"InChI=1S/C14H22ClN3O2.ClH/c1-4-18(5-2)7-6-17-14(19)10-8-11(15)12(16)9-13(10)20-3;/h8-9H,4-7,16H2,1-3H3,(H,17,19);1H",-3.225649088,CC[NH+](CC)CCNC(=O)C1=CC(Cl)=C(N)C=C1OC,0,G1,A,None,None,Positive
A-1392,InChI=1S/AsH2/h1H2,-2.573579366,[AsH3],0.76249522,G4,A,mono-constituent,None,Uncharged
A-1397,"InChI=1S/C22H30O3/c1-20-9-5-15(23)13-14(20)3-4-16-17(20)6-10-21(2)18(16)7-11-22(21)12-8-19(24)25-22/h13,16-18H,3-12H2,1-2H3/t16-,17+,18+,20+,21+,22-/m1/s1",-4.225003779,CC12CCC3C(CCC4=CC(=O)CCC34C)C1CCC21CCC(=O)O1,0,G1,A,mono-constituent,None,Uncharged
A-1399,"InChI=1S/C18H26O6/c1-8-18(9-22-15(19)12(2)3,10-23-16(20)13(4)5)11-24-17(21)14(6)7/h2,4,6,8-11H2,1,3,5,7H3",-4.226234297,CCC(COC(=O)C(C)=C)(COC(=O)C(C)=C)COC(=O)C(C)=C,0.094632852,G3,A,mono-constituent,None,Uncharged
A-1400,"InChI=1S/C10H14O/c1-7(2)10-5-4-9(11)6-8(10)3/h4-7,11H,1-3H3",-2.854511354,CC(C)C1=CC=C(O)C=C1C,0,G1,A,mono-constituent,None,Uncharged
A-1401,"InChI=1S/C11H22O/c1-8(2)10-6-5-9(3)7-11(10)12-4/h8-11H,5-7H2,1-4H3",-3.930174452,COC1CC(C)CCC1C(C)C,0,G1,A,None,None,Uncharged
A-1402,"InChI=1S/C24H12Br2O5.Hg.2Na/c1-2-3-6-14-22(28)18(26)10-16-21(12-7-4-5-8-13(12)24(29)30)15-9-17(25)19(27)11-20(15)31-23(14)16;;;/h1-5,7-11,28H,(H,29,30);;;/q;;2*+1/p-2",-4.593683066,[O-]C(=O)C1=CC=CC=C1C1=C2C=C(Br)C(=O)C=C2OC2=C1C=C(Br)C(=O)C2=C1[Hg]CC=C1,0,G1,A,None,None,Negative
A-1404,"InChI=1S/C10H16/c1-7-4-5-8-9(6-7)10(8,2)3/h4,8-9H,5-6H2,1-3H3",-4.670405271,CC1=CCC2C(C1)C2(C)C,0.38752079,G5,A,multi-constituent,Multi-constituent Substances,Uncharged
A-1405,"InChI=1S/C15H26O/c16-15-13-11-9-7-5-3-1-2-4-6-8-10-12-14-15/h7,9H,1-6,8,10-14H2/b9-7-",-4.883187113,O=C1CCCCCCCCCCC=CCC1,0,G1,A,mono-constituent,None,Uncharged
A-1406,InChI=1S/O.Zn,-4.448167715,O=[Zn],0,G1,A,mono-constituent,None,Uncharged
A-1407,"InChI=1S/C14H14O/c1-11-7-3-5-9-13(11)15-14-10-6-4-8-12(14)2/h3-10H,1-2H3",-4.843927714,CC1=CC=CC=C1OC1=CC=CC=C1C,0,G1,A,None,None,Uncharged
A-1409,"InChI=1S/C13H14/c1-10(2)12-9-5-7-11-6-3-4-8-13(11)12/h3-10H,1-2H3",-4.782393555,CC(C)C1=CC=CC2=CC=CC=C12,0,G1,A,multi-constituent,None,Uncharged
A-1410,"InChI=1S/C24H32N2O2/c1-5-24(25(3)4,18-20-8-6-19(2)7-9-20)23(27)21-10-12-22(13-11-21)26-14-16-28-17-15-26/h6-13H,5,14-18H2,1-4H3",-5.133233152,CCC(CC1=CC=C(C)C=C1)([NH+](C)C)C(=O)C1=CC=C(C=C1)N1CCOCC1,0.100519063,G5,A,multi-constituent,None,Positive
A-1411,"InChI=1S/C14H12N2O4/c1-20-13-8-7-10(9-12(13)16(18)19)14(17)15-11-5-3-2-4-6-11/h2-9H,1H3,(H,15,17)",-4.987825809,COC1=CC=C(C=C1[N+]([O-])=O)C(=O)NC1=CC=CC=C1,0,G1,A,mono-constituent,None,PureChargeSeparation
A-1414,InChI=1S/3O.2Sb/q3*-2;2*+3,-5.023754804,[Sb+3],0.653109677,G4,A,mono-constituent,None,Uncharged
A-1415,"InChI=1S/C3H6N6.C3H3N3O3/c4-1-7-2(5)9-3(6)8-1;7-1-4-2(8)6-3(9)5-1/h(H6,4,5,6,7,8,9);(H3,4,5,6,7,8,9)",-4.975513502,O=C1NC(=O)[N-]C(=O)N1,0.291293212,G5,A,mono-constituent,Cosolvent Buffer,Negative
A-1417,"InChI=1S/2H3O4P.3Zn/c2*1-5(2,3)4;;;/h2*(H3,1,2,3,4);;;/q;;3*+2/p-6",-5.155347286,[Zn++],0,G1,A,mono-constituent,Multi-constituent Substances,Uncharged
A-1418,InChI=1S/C12H8ClNO2/c13-10-7-5-9(6-8-10)11-3-1-2-4-12(11)14(15)16/h1-8H,-4.937209456,[O-][N+](=O)C1=CC=CC=C1C1=CC=C(Cl)C=C1,0,G1,A,mono-constituent,None,PureChargeSeparation
A-1420,"InChI=1S/C16H26O/c1-11-9-13-7-6-8-15(3,4)14(13)10-16(11,5)12(2)17/h11H,6-10H2,1-5H3",-4.941791315,CC1CC2=C(CC1(C)C(C)=O)C(C)(C)CCC2,0,G1,A,multi-constituent,None,Uncharged
A-1421,"InChI=1S/C8H16O2.Mo/c1-3-5-6-7(4-2)8(9)10;/h7H,3-6H2,1-2H3,(H,9,10);/p-1",-3.435168605,CCCCC(CC)C([O-])=O,0.41311161,G3,A,mono-constituent,Non Valid pH,Negative
A-1422,"InChI=1S/C12H8Cl3NO/c13-7-1-3-11(9(15)5-7)17-12-4-2-8(14)6-10(12)16/h1-6H,16H2",-5.045264286,NC1=CC(Cl)=CC=C1OC1=CC=C(Cl)C=C1Cl,0,G1,A,mono-constituent,None,Uncharged
A-1423,"InChI=1S/C18H34O4/c1-3-5-7-11-15-21-17(19)13-9-10-14-18(20)22-16-12-8-6-4-2/h3-16H2,1-2H3",-5.082600349,CCCCCCOC(=O)CCCCC(=O)OCCCCCC,0,G1,A,mono-constituent,Non Valid pH,Uncharged
A-1425,"InChI=1S/2C10H20O2S.2C4H9.Sn/c2*1-3-5-6-9(4-2)7-12-10(11)8-13;2*1-3-4-2;/h2*9,13H,3-8H2,1-2H3;2*1,3-4H2,2H3;/q;;;;+2/p-2",-5.394286712,CCCCC(CC)COC(=O)CS[Sn](CCCC)(CCCC)SCC(=O)OCC(CC)CCCC,0,G1,A,mono-constituent,Non Valid pH,Uncharged
A-1428,"InChI=1S/C18H13ClN2O6S.Sr/c1-9-14(19)7-11(8-15(9)28(25,26)27)20-21-16-12-5-3-2-4-10(12)6-13(17(16)22)18(23)24;/h2-8,22H,1H3,(H,23,24)(H,25,26,27);/q;+2/p-2",-5.306582846,CC1=C(Cl)C=C(C=C1S([O-])(=O)=O)N=NC1=C(O)C(=CC2=CC=CC=C12)C([O-])=O,0.698970004,G2,A,None,None,Negative
A-1429,"InChI=1S/C17H28O2/c1-11-6-8-14(17(4,5)19-13(3)18)10-16-12(2)7-9-15(11)16/h11-12,14H,6-10H2,1-5H3",-5.022602512,CC1CCC2=C1CC(CCC2C)C(C)(C)OC(C)=O,0,G1,A,None,None,Uncharged
A-1431,"InChI=1S/C18H36O2/c1-4-6-13-17(5-2)14-9-7-8-11-16(3)12-10-15-18(19)20/h16-17H,4-15H2,1-3H3,(H,19,20)",-5.056117837,CCCCC(CC)CCCCCC(C)CCCC([O-])=O,0,G1,A,UVCB,Non Valid pH,Negative
A-1432,"InChI=1S/C15H28O/c1-6-15(5,16)12-8-11-14(4)10-7-9-13(2)3/h1,13-14,16H,7-12H2,2-5H3",-4.953059619,CC(C)CCCC(C)CCCC(C)(O)C#C,0.159379381,G3,A,mono-constituent,Non Valid pH,Uncharged
A-1433,InChI=1S/Gd,-4.798650645,[Gd],0,G1,A,mono-constituent,None,Uncharged
A-1436,"InChI=1S/C4F8O/c5-1(6)2(7)13-4(11,12)3(8,9)10",-4.954296793,FC(F)=C(F)OC(F)(F)C(F)(F)F,0,G1,A,mono-constituent,None,Uncharged
A-1440,"InChI=1S/C8H16/c1-7(2)6-8(3,4)5/h1,6H2,2-5H3",-4.688326948,CC(=C)CC(C)(C)C,0,G1,A,mono-constituent,None,Uncharged
A-1444,"InChI=1S/C12H11N.C8H16/c1-3-7-11(8-4-1)13-12-9-5-2-6-10-12;1-7(2)6-8(3,4)5/h1-10,13H;1,6H2,2-5H3",-5.087662615,N(C1=CC=CC=C1)C1=CC=CC=C1,0.078803927,G3,A,UVCB,Cosolvent Buffer,Uncharged
A-1445,InChI=1S/Al.Mg.Na.3O3Si/c;;;3*1-4(2)3/q+3;+2;+1;3*-2,-5.130514687,O,0,G1,A,UVCB,Multi-constituent Substances,Uncharged
A-1447,"InChI=1S/C16H30O4/c1-13(2,3)17-19-15(7,8)11-12-16(9,10)20-18-14(4,5)6/h1-10H3",-5.114568529,CC(C)(C)OOC(C)(C)C#CC(C)(C)OOC(C)(C)C,0,G1,A,mono-constituent,Unstable,Uncharged
A-1448,"InChI=1S/C12H24O2/c1-3-5-7-8-10-11(12(13)14)9-6-4-2/h11H,3-10H2,1-2H3,(H,13,14)",-4.959305967,CCCCCCC(CCCC)C([O-])=O,0,G1,A,mono-constituent,None,Negative
A-1449,"InChI=1S/C15H23NO2/c1-3-5-6-12(4-2)11-18-15(17)13-7-9-14(16)10-8-13/h7-10,12H,3-6,11,16H2,1-2H3",-5.054393659,CCCCC(CC)COC(=O)C1=CC=C(N)C=C1,0,G1,A,None,None,Uncharged
A-1450,"InChI=1S/2C18H36O3.Ca/c2*1-2-3-4-11-14-17(19)15-12-9-7-5-6-8-10-13-16-18(20)21;/h2*17,19H,2-16H2,1H3,(H,20,21);/q;;+2/p-2",-5.463097207,CCCCCCC(O)CCCCCCCCCCC([O-])=O,1.000830842,G4,A,mono-constituent,None,Negative
A-1451,"InChI=1S/2C18H36O2.Ca/c2*1-2-3-4-5-6-7-8-9-10-11-12-13-14-15-16-17-18(19)20;/h2*2-17H2,1H3,(H,19,20);/q;;+2/p-2",-5.440787474,CCCCCCCCCCCCCCCCCC([O-])=O,2.191675076,G2,A,mono-constituent,None,Negative
A-1452,"InChI=1S/C17H34O6/c1-9-10-13-19-14(18)11-12-17(8,22-20-15(2,3)4)23-21-16(5,6)7/h9-13H2,1-8H3",-5.189881345,CCCCOC(=O)CCC(C)(OOC(C)(C)C)OOC(C)(C)C,0,G1,A,mono-constituent,Non Valid pH,Uncharged
A-1453,InChI=1S/C10H4Cl2O2/c11-7-8(12)10(14)6-4-2-1-3-5(6)9(7)13/h1-4H,-5.023776406,ClC1=C(Cl)C(=O)C2=CC=CC=C2C1=O,0.793620271,G4,A,mono-constituent,None,Uncharged
A-1455,"InChI=1S/C10H18O.C10H16O.2C10H16/c1-9(2)8-4-6-10(3,11-9)7-5-8;1-9(2)7-4-5-10(9,3)8(11)6-7;1-7-8-4-5-9(6-8)10(7,2)3;1-7-4-5-8-6-9(7)10(8,2)3/h8H,4-7H2,1-3H3;7H,4-6H2,1-3H3;8-9H,1,4-6H2,2-3H3;4,8-9H,5-6H2,1-3H3",-5.438370605,CC1(C)C2CCC1(C)C(=O)C2,0.014908115,G3,A,None,Multi-constituent Substances,Uncharged
A-1456,"InChI=1S/C18H15NO3.Na/c1-22-17-9-5-4-8-15(17)19-18(21)14-10-12-6-2-3-7-13(12)11-16(14)20;/h2-11,20H,1H3,(H,19,21);/q;+1/p-1",-5.176510186,COC1=CC=CC=C1NC(=O)C1=CC2=CC=CC=C2C=C1O,0,G1,A,None,None,Uncharged
A-1457,InChI=1S/Cd.O,-4.786382933,O=[Cd],0,G1,A,mono-constituent,None,Uncharged
A-1461,"InChI=1S/C7H4Cl4/c8-6-4-2-1-3-5(6)7(9,10)11/h1-4H",-5.043933097,ClC1=CC=CC=C1C(Cl)(Cl)Cl,0,G1,A,mono-constituent,None,Uncharged
A-1462,"InChI=1S/C12H24O2/c1-3-4-5-6-7-8-9-10-11-14-12(2)13/h3-11H2,1-2H3",-4.985758302,CCCCCCCCCCOC(C)=O,0,G1,A,mono-constituent,Non Valid pH,Uncharged
A-1464,"InChI=1S/C10H10F9NO4S/c1-3-6(21)24-5-4-20(2)25(22,23)10(18,19)8(13,14)7(11,12)9(15,16)17/h3H,1,4-5H2,2H3",-5.308746093,CN(CCOC(=O)C=C)S(=O)(=O)C(F)(F)C(F)(F)C(F)(F)C(F)(F)F,0,G1,A,mono-constituent,None,Uncharged
A-1466,"InChI=1S/C12H15N/c1-2-3-7-12(10-13)11-8-5-4-6-9-11/h4-6,8-9,12H,2-3,7H2,1H3",-3.662354453,CCCCC(C#N)C1=CC=CC=C1,0,G1,A,mono-constituent,None,Uncharged
A-1467,"InChI=1S/C2Cl3F3/c3-1(4,5)2(6,7)8",-4.333192393,FC(F)(F)C(Cl)(Cl)Cl,0,G1,A,mono-constituent,None,Uncharged
A-1468,"InChI=1S/C13H28O/c1-13(2)11-9-7-5-3-4-6-8-10-12-14/h13-14H,3-12H2,1-2H3",-5.000794033,CC(C)CCCCCCCCCCO,0.313980408,G5,A,UVCB,None,Uncharged
A-1470,"InChI=1S/C19H17NO3/c1-2-23-18-10-6-5-9-16(18)20-19(22)15-11-13-7-3-4-8-14(13)12-17(15)21/h3-12,21H,2H2,1H3,(H,20,22)",-5.186601809,CCOC1=CC=CC=C1NC(=O)C1=CC2=CC=CC=C2C=C1O,0,G1,A,mono-constituent,None,Uncharged
A-1472,InChI=1S/Ca.O.Zr.2H,-4.87307926,O=[Zr],0.740463459,G4,A,None,None,Uncharged
A-1473,"InChI=1S/C16H30O4/c1-13(2)19-15(17)11-9-7-5-6-8-10-12-16(18)20-14(3)4/h13-14H,5-12H2,1-4H3",-5.155961214,CC(C)OC(=O)CCCCCCCCC(=O)OC(C)C,0,G1,A,mono-constituent,None,Uncharged
A-1474,"InChI=1S/C13H18O3/c1-2-3-4-7-10-16-13(15)11-8-5-6-9-12(11)14/h5-6,8-9,14H,2-4,7,10H2,1H3",-5.045878208,CCCCCCOC(=O)C1=CC=CC=C1O,0,G1,A,mono-constituent,None,Uncharged
A-1475,"InChI=1S/C18H38O2/c1-2-3-4-12-15-18(20)16-13-10-8-6-5-7-9-11-14-17-19/h18-20H,2-17H2,1H3",-5.156094631,CCCCCCC(O)CCCCCCCCCCCO,0.150514998,G3,A,mono-constituent,None,Uncharged
A-1476,InChI=1S/C6Cl4O2/c7-1-2(8)6(12)4(10)3(9)5(1)11,-5.089686144,ClC1=C(Cl)C(=O)C(Cl)=C(Cl)C1=O,1.048443072,G2,A,mono-constituent,None,Uncharged
A-1478,"InChI=1S/C16H35O4P.K/c1-2-3-4-5-6-7-8-9-10-11-12-13-14-15-16-20-21(17,18)19;/h2-16H2,1H3,(H2,17,18,19);/q;+1/p-1",-3.260259354,CCCCCCCCCCCCCCCCOP([O-])([O-])=O,0.014835335,G3,A,mono-constituent,None,Negative
A-1479,"InChI=1S/C11H14ClNO/c1-2-13(8-7-12)11-5-3-10(9-14)4-6-11/h3-6,9H,2,7-8H2,1H3",-3.033448375,CCN(CCCl)C1=CC=C(C=O)C=C1,0,G1,A,mono-constituent,None,Uncharged
A-1481,"InChI=1S/C8H16O2/c1-4-8(9)10-6-5-7(2)3/h7H,4-6H2,1-3H3",-2.870073641,CCC(=O)OCCC(C)C,0,G1,A,mono-constituent,None,Uncharged
A-1482,"InChI=1S/C15H26O/c1-7-15(6)9-8-12(14(4,5)16)10-13(15)11(2)3/h7,12-13,16H,1-2,8-10H2,3-6H3/t12-,13+,15-/m1/s1",-3.059278372,CC(=C)C1CC(CCC1(C)C=C)C(C)(C)O,0,G1,A,mono-constituent,None,Uncharged
A-1483,"InChI=1S/C16H14N4O8S.C11H25NO.Cr.H2O/c1-9(21)14(16(23)17-10-5-3-2-4-6-10)19-18-12-7-11(20(24)25)8-13(15(12)22)29(26,27)28;1-3-5-7-11(4-2)10-13-9-6-8-12;;/h2-8H,1H3,(H4,17,18,19,21,22,23,26,27,28);11H,3-10,12H2,1-2H3;;1H2/q;;+3;/p-3",-3.542587387,CC(=O)C(=N[N-]C1=CC(=CC(=C1O)S([O-])(=O)=O)[N+]([O-])=O)C(=O)NC1=CC=CC=C1,0.064690325,G5,A,None,Multi-constituent Substances,Negative
A-1484,"InChI=1S/C8H16O/c1-3-5-6-7-8(9)4-2/h4,8-9H,2-3,5-7H2,1H3",-1.821931715,CCCCCC(O)C=C,0,G1,A,mono-constituent,None,Uncharged
A-1485,"InChI=1S/C3F6/c4-1(2(5)6)3(7,8)9",-2.888798283,FC(F)=C(F)C(F)(F)F,0.050496066,G5,A,mono-constituent,None,Uncharged
A-1488,"InChI=1S/C20H28O2/c1-3-20-11-10-16-15-7-5-14(22-2)12-13(15)4-6-17(16)18(20)8-9-19(20)21/h5,7,12,16-19,21H,3-4,6,8-11H2,1-2H3/t16-,17-,18+,19+,20+/m1/s1",-4.875700653,CCC12CCC3C(CCC4=CC(OC)=CC=C34)C1CCC2O,0,G1,A,mono-constituent,None,Uncharged
A-1489,"InChI=1S/C15H28O2/c1-15(2,11-3-7-13(16)8-4-11)12-5-9-14(17)10-6-12/h11-14,16-17H,3-10H2,1-2H3",-3.097609749,CC(C)(C1CCC(O)CC1)C1CCC(O)CC1,0,G1,A,mono-constituent,None,Uncharged
A-1490,"InChI=1S/C21H44O11Si/c1-22-6-9-25-12-15-30-33(31-16-13-26-10-7-23-2,32-17-14-27-11-8-24-3)18-4-5-28-19-21-20-29-21/h21H,4-20H2,1-3H3",1.582313338,COCCOCCO[Si](CCCOCC1CO1)(OCCOCCOC)OCCOCCOC,0,G1,A,mono-constituent,None,Uncharged
A-1494,"InChI=1S/C16H12N2O7S2.2Na/c19-15-8-1-10-9-13(27(23,24)25)6-7-14(10)16(15)18-17-11-2-4-12(5-3-11)26(20,21)22;;/h1-9,17H,(H,20,21,22)(H,23,24,25);;/q;2*+1/p-2/b18-16+;;",-1.376746915,[O-]S(=O)(=O)C1=CC=C(NN=C2C(=O)C=CC3=CC(=CC=C23)S([O-])(=O)=O)C=C1,0,G1,A,mono-constituent,Non Valid pH,Negative
A-1495,"InChI=1S/C2H3ClF2/c1-2(3,4)5/h1H3",-1.723390854,CC(F)(F)Cl,0.066312783,G3,A,mono-constituent,None,Uncharged
A-1496,"InChI=1S/C9H7NO6/c1-16-9(13)6-2-5(8(11)12)3-7(4-6)10(14)15/h2-4H,1H3,(H,11,12)",-2.073729924,COC(=O)C1=CC(=CC(=C1)[N+]([O-])=O)C([O-])=O,0,G1,A,mono-constituent,None,Negative
A-1497,InChI=1S/CH2F2/c2-1-3/h1H2,-1.437441792,FCF,0.194414763,G5,A,mono-constituent,None,Uncharged
A-1498,"InChI=1S/C17H18N2O2/c1-13(19-12-15-7-3-5-9-17(15)21)10-18-11-14-6-2-4-8-16(14)20/h2-9,11-13,18-19H,10H2,1H3/b14-11-,15-12-",-3.172023424,CC(CN=CC1=CC=CC=C1O)N=CC1=CC=CC=C1O,0,G1,A,mono-constituent,Non Valid pH,Uncharged
A-1499,"InChI=1S/2C28H44O3S.Mg/c2*1-3-5-7-9-11-13-15-19-24-23-25-20-17-18-22-27(25)28(32(29,30)31)26(24)21-16-14-12-10-8-6-4-2;/h2*17-18,20,22-23H,3-16,19,21H2,1-2H3,(H,29,30,31);/q;;+2/p-2",-4.674472917,CCCCCCCCCC1=CC2=CC=CC=C2C(=C1CCCCCCCCC)S([O-])(=O)=O,0.022791739,G3,A,UVCB,None,Negative
A-1501,"InChI=1S/C15H16O4S/c1-11(2)19-13-5-9-15(10-6-13)20(17,18)14-7-3-12(16)4-8-14/h3-11,16H,1-2H3",-4.171445785,CC(C)OC1=CC=C(C=C1)S(=O)(=O)C1=CC=C(O)C=C1,0,G1,A,None,None,Uncharged
A-1503,"InChI=1S/C4H12Si/c1-5(2,3)4/h1-4H3",-3.653340518,C[Si](C)(C)C,0,G1,A,mono-constituent,None,Uncharged
A-1505,"InChI=1S/C36H16Cl2N4O4/c37-23-14-22(36-40-26-12-10-20-28(30(26)42-36)34(46)18-8-4-2-6-16(18)32(20)44)24(38)13-21(23)35-39-25-11-9-19-27(29(25)41-35)33(45)17-7-3-1-5-15(17)31(19)43/h1-14H,(H,39,41)(H,40,42)",-4.524775941,ClC1=CC(C2=NC3=CC=C4C(=O)C5=CC=CC=C5C(=O)C4=C3N2)=C(Cl)C=C1C1=NC2=CC=C3C(=O)C4=CC=CC=C4C(=O)C3=C2N1,0,G1,A,None,Prediction Estimation,Uncharged
A-1506,"InChI=1S/C11H22O2/c1-9(8-11(3,4)5)6-7-13-10(2)12/h9H,6-8H2,1-5H3",-3.989167832,CC(CCOC(C)=O)CC(C)(C)C,0,G1,A,mono-constituent,None,Uncharged
A-1508,InChI=1S/C8H4Cl2O2/c9-7(11)5-1-2-6(4-3-5)8(10)12/h1-4H,-4.028793779,ClC(=O)C1=CC=C(C=C1)C(Cl)=O,0.051331171,G3,A,mono-constituent,Unstable,Uncharged
A-1509,"InChI=1S/C9H14O3/c1-7(2)9(10)12-6-8-4-3-5-11-8/h8H,1,3-6H2,2H3",-0.952455004,CC(=C)C(=O)OCC1CCCO1,0,G1,A,mono-constituent,None,Uncharged
A-1510,"InChI=1S/C18H24O2/c1-18-9-8-14-13-5-3-12(19)10-11(13)2-4-15(14)16(18)6-7-17(18)20/h10,13-16H,2-9H2,1H3/t13-,14+,15+,16-,18-/m0/s1",-3.156500662,CC12CCC3C(CCC4=CC(=O)CCC34)C1CCC2=O,0.536356806,G4,A,mono-constituent,None,Uncharged
A-1511,"InChI=1S/C11H12O2/c1-9(2)11(12)13-8-10-6-4-3-5-7-10/h3-7H,1,8H2,2H3",-2.968204541,CC(=C)C(=O)OCC1=CC=CC=C1,0,G1,A,mono-constituent,None,Uncharged