ID,InChI,Solubility,SMILEScurated,SD,Group,Dataset,Composition,Error,Charge
B-793,"InChI=1S/C6H8N2O3S/c7-8-5-2-1-3-6(4-5)12(9,10)11/h1-4,8H,7H2,(H,9,10,11)",-0.8275,NNC1=CC=CC(=C1)S([O-])(=O)=O,0,G1,B,None,None,Negative
B-794,"InChI=1S/C7H10N2O2S/c8-5-6-1-3-7(4-2-6)12(9,10)11/h1-4H,5,8H2,(H2,9,10,11)",0.321,NS(=O)(=O)C1=CC=C(C[NH3+])C=C1,0,G1,B,None,None,Positive
B-795,"InChI=1S/C13H18O7/c14-5-7-3-1-2-4-8(7)19-13-12(18)11(17)10(16)9(6-15)20-13/h1-4,9-18H,5-6H2/t9-,10-,11+,12-,13-/m1/s1",-0.8547,OCC1OC(OC2=CC=CC=C2CO)C(O)C(O)C1O,0,G1,B,None,None,Uncharged
B-798,"InChI=1S/C6H9NO6/c8-4(9)1-7(2-5(10)11)3-6(12)13/h1-3H2,(H,8,9)(H,10,11)(H,12,13)",-0.5101,[O-]C(=O)CN(CC([O-])=O)CC([O-])=O,0.828652979,G2,B,None,None,Negative
B-799,"InChI=1S/C7H6O3/c8-4-5-1-2-6(9)7(10)3-5/h1-4,9-10H",-1.3402,OC1=CC=C(C=O)C=C1O,0.4501,G3,B,None,None,Uncharged
B-800,"InChI=1S/C7H9NO2S/c8-6(7(9)10)4-5-2-1-3-11-5/h1-3,6H,4,8H2,(H,9,10)",-0.8356,[NH3+]C(CC1=CC=CS1)C([O-])=O,0,G1,B,None,None,Zwitterion
B-801,"InChI=1S/C6H15NO2/c1-2-7(3-5-8)4-6-9/h8-9H,2-6H2,1H3/p+1",0.8755,CC[NH+](CCO)CCO,0,G1,B,None,None,Positive
B-802,"InChI=1S/C13H16N4O6/c18-13-16(14-7-10-1-2-12(22-10)17(19)20)9-11(23-13)8-15-3-5-21-6-4-15/h1-2,7,11H,3-6,8-9H2/b14-7+",-2.6359,[O-][N+](=O)C1=CC=C(O1)C=NN1CC(CN2CCOCC2)OC1=O,0,G1,B,None,None,PureChargeSeparation
B-803,"InChI=1S/C6H8N4O3S/c1-2-7-5(11)9-6-8-3-4(14-6)10(12)13/h3H,2H2,1H3,(H2,7,8,9,11)",-2.8578,CCNC(=O)NC1=NC=C(S1)[N+]([O-])=O,0,G1,B,None,None,PureChargeSeparation
B-804,"InChI=1S/C16H20N2/c1-3-7-15(8-4-1)13-17-11-12-18-14-16-9-5-2-6-10-16/h1-10,17-18H,11-14H2",-1.7865,C(C[NH2+]CC1=CC=CC=C1)NCC1=CC=CC=C1,0.28825,G3,B,None,None,Positive
B-806,"InChI=1S/C8H11N3O3S.Na/c1-11(2)8-5-3-7(4-6-8)9-10-15(12,13)14;/h3-6H,1-2H3,(H,12,13,14);/q;+1/p-1",-1.0991,CN(C)C1=CC=C(C=C1)N=NS([O-])(=O)=O,0,G1,B,None,None,Negative
B-807,"InChI=1S/C10H12O/c1-3-4-9-5-7-10(11-2)8-6-9/h3,5-8H,1,4H2,2H3",-2.9209,COC1=CC=C(CC=C)C=C1,0,G1,B,None,None,Uncharged
B-808,"InChI=1S/C8H14O2/c9-8(10)6-5-7-3-1-2-4-7/h7H,1-6H2,(H,9,10)",-1.7691,[O-]C(=O)CCC1CCCC1,0,G1,B,None,None,Negative
B-810,"InChI=1S/C12H22O4/c1-3-5-9-15-11(13)7-8-12(14)16-10-6-4-2/h3-10H2,1-2H3",-3.0006,CCCCOC(=O)CCC(=O)OCCCC,0,G1,B,None,None,Uncharged
B-811,"InChI=1S/C8H12O4/c1-3-11-7(9)5-6-8(10)12-4-2/h5-6H,3-4H2,1-2H3/b6-5-",-1.0899,CCOC(=O)C=CC(=O)OCC,0.01120739,G3,B,None,None,Uncharged
B-812,"InChI=1S/C10H18O4/c1-3-13-9(11)7-5-6-8-10(12)14-4-2/h3-8H2,1-2H3",-1.6795,CCOC(=O)CCCCC(=O)OCC,0,G1,B,None,None,Uncharged
B-815,"InChI=1S/C10H30O3Si4/c1-14(2,3)11-16(7,8)13-17(9,10)12-15(4,5)6/h1-10H3",-7.6637,C[Si](C)(C)O[Si](C)(C)O[Si](C)(C)O[Si](C)(C)C,0,G1,B,None,None,Uncharged
B-816,"InChI=1S/C8H16NO5P/c1-7(6-8(10)9(2)3)14-15(11,12-4)13-5/h6H,1-5H3/b7-6+",0.6249,COP(=O)(OC)OC(C)=CC(=O)N(C)C,0,G1,B,None,None,Uncharged
B-817,"InChI=1S/C3H5IO2/c4-2-1-3(5)6/h1-2H2,(H,5,6)",-0.43,[O-]C(=O)CCI,0,G1,B,None,None,Negative
B-819,"InChI=1S/C3H4O4/c4-2(5)1-3(6)7/h1H2,(H,4,5)(H,6,7)",0.8652,[O-]C(=O)CC([O-])=O,0.1524,G3,B,None,None,Negative
B-820,"InChI=1S/C3H3NOS2/c5-2-1-7-3(6)4-2/h1H2,(H,4,5,6)",-1.7723,O=C1CSC(=S)N1,0,G1,B,None,None,Uncharged
B-821,"InChI=1S/C4H4N2OS/c7-3-1-2-5-4(8)6-3/h1-2H,(H2,5,6,7,8)",-2.2573,O=C1NC(=S)NC=C1,0.00785,G3,B,None,None,Uncharged
B-822,"InChI=1S/C5H5NO/c7-5-3-1-2-4-6-5/h1-4H,(H,6,7)",1.0218,O=C1NC=CC=C1,0,G1,B,None,None,Uncharged
B-823,"InChI=1S/C4H9NO2/c1-4(7)5-2-3-6/h6H,2-3H2,1H3,(H,5,7)",0.9867,CC(=O)NCCO,0,G1,B,None,None,Uncharged
B-825,"InChI=1S/C2H6N4S2/c3-1(7)5-6-2(4)8/h(H3,3,5,7)(H3,4,6,8)",-1.7965,NC(=S)NNC(N)=S,0,G1,B,None,None,Uncharged
B-827,"InChI=1S/C4H8N2S4.2Na/c7-3(8)5-1-2-6-4(9)10;;/h1-2H2,(H2,5,7,8)(H2,6,9,10);;/q;2*+1/p-2",-0.1078,[S-]C(=S)NCCNC([S-])=S,0,G1,B,None,None,Negative
B-828,"InChI=1S/C4H10N2.2ClH/c1-2-6-4-3-5-1;;/h5-6H,1-4H2;2*1H",0.4112,C1C[NH2+]CCN1,0,G1,B,None,None,Positive
B-829,"InChI=1S/C8H16O2/c1-3-4-5-6-7-10-8(2)9/h3-7H2,1-2H3",-2.451,CCCCCCOC(C)=O,0,G1,B,None,None,Uncharged
B-831,"InChI=1S/C12H27N/c1-3-5-7-9-11-13-12-10-8-6-4-2/h13H,3-12H2,1-2H3",-3.1574,CCCCCC[NH2+]CCCCCC,0,G1,B,None,None,Positive
B-832,"InChI=1S/C10H22O4/c1-2-3-5-12-7-9-14-10-8-13-6-4-11/h11H,2-10H2,1H3",0.6855,CCCCOCCOCCOCCO,0,G1,B,None,None,Uncharged
B-833,"InChI=1S/C10Cl10O/c11-2-1(21)3(12)6(15)4(2,13)8(17)5(2,14)7(3,16)9(6,18)10(8,19)20",-5.2594,ClC12C(=O)C3(Cl)C4(Cl)C1(Cl)C1(Cl)C2(Cl)C3(Cl)C4(Cl)C1(Cl)Cl,0,G1,B,None,None,Uncharged
B-834,"InChI=1S/C10H16N2O3.Na/c1-4-6(3)10(5-2)7(13)11-9(15)12-8(10)14;/h6H,4-5H2,1-3H3,(H2,11,12,13,14,15);/q;+1/p-1",0.1528,CCC(C)C1(CC)C(=O)NC(=O)NC1=O,0,G1,B,None,None,Uncharged
B-835,"InChI=1S/C7H8O7/c8-4(9)1-7(2-5(10)11)6(12)13-3-14-7/h1-3H2,(H,8,9)(H,10,11)",-0.611,[O-]C(=O)CC1(CC([O-])=O)OCOC1=O,0.0095,G3,B,None,None,Negative
B-837,"InChI=1S/CH5AsO3.2Na/c1-2(3,4)5;;/h1H3,(H2,3,4,5);;/q;2*+1/p-2",0.3711,C[As](O)([O-])=O,0,G1,B,None,None,Negative
B-838,"InChI=1S/C2H3FO2/c3-1-2(4)5/h1H2,(H,4,5)",1.1077,[O-]C(=O)CF,0,G1,B,None,None,Negative
B-841,"InChI=1S/C4H9NO3/c1-2(6)3(5)4(7)8/h2-3,6H,5H2,1H3,(H,7,8)",0.067,CC(O)C([NH3+])C([O-])=O,0.144529153,G5,B,None,None,Zwitterion
B-842,"InChI=1S/C4H6O6/c5-1(3(7)8)2(6)4(9)10/h1-2,5-6H,(H,7,8)(H,9,10)/t1-,2-/m0/s1",0.8236,OC(C(O)C([O-])=O)C([O-])=O,0,G1,B,None,None,Negative
B-845,"InChI=1S/C8H7N3O5/c1-4-6(8(9)12)2-5(10(13)14)3-7(4)11(15)16/h2-3H,1H3,(H2,9,12)",-2.3525,CC1=C(C=C(C=C1[N+]([O-])=O)[N+]([O-])=O)C(N)=O,0,G1,B,None,None,PureChargeSeparation
B-846,"InChI=1S/C8H6F3N3O4S2/c9-8(10,11)4-1-5-7(2-6(4)19(12,15)16)20(17,18)14-3-13-5/h1-3H,(H,13,14)(H2,12,15,16)",-0.8186,NS(=O)(=O)C1=CC2=C(C=C1C(F)(F)F)N=C[N-]S2(=O)=O,0,G1,B,None,None,Negative
B-847,"InChI=1S/C10H7N3S/c1-2-4-8-7(3-1)12-10(13-8)9-5-14-6-11-9/h1-6H,(H,12,13)",-3.6048,N1C2=CC=CC=C2N=C1C1=CSC=N1,1.1524,G2,B,None,None,Uncharged
B-848,"InChI=1S/C8H8Cl2O5S/c9-6-1-2-8(7(10)5-6)14-3-4-15-16(11,12)13/h1-2,5H,3-4H2,(H,11,12,13)",-0.0601,[O-]S(=O)(=O)OCCOC1=CC=C(Cl)C=C1Cl,0,G1,B,None,None,Negative
B-849,"InChI=1S/C7H6O5/c8-4-1-3(7(11)12)2-5(9)6(4)10/h1-2,8-10H,(H,11,12)",-1.1552,OC1=CC(=CC(O)=C1O)C([O-])=O,0,G1,B,None,None,Negative
B-850,"InChI=1S/C9H12N2O2/c1-2-13-8-5-3-7(4-6-8)11-9(10)12/h3-6H,2H2,1H3,(H3,10,11,12)",-2.173,CCOC1=CC=C(NC(N)=O)C=C1,0,G1,B,None,None,Uncharged
B-851,"InChI=1S/C4H6O4.2Na/c5-3(6)1-2-4(7)8;;/h1-2H2,(H,5,6)(H,7,8);;/q;2*+1/p-2",0.0914,[O-]C(=O)CCC([O-])=O,0.252576458,G5,B,None,None,Negative
B-852,InChI=1S/CN.K/c1-2;/q-1;+1,1.0436,C#N,0,G1,B,None,None,Uncharged
B-854,"InChI=1S/C8H24N4O3P2/c1-9(2)16(13,10(3)4)15-17(14,11(5)6)12(7)8/h1-8H3",0.5433,CN(C)P(=O)(OP(=O)(N(C)C)N(C)C)N(C)C,0,G1,B,None,None,Uncharged
B-855,"InChI=1S/C10H16N4O7/c11-7-6(8(19)14-10(12)13-7)21-9-5(18)4(17)3(16)2(1-15)20-9/h2-5,9,15-18H,1H2,(H5,11,12,13,14,19)/t2-,3-,4+,5-,9+/m1/s1",-1.4832,NC1=NC(N)=C(OC2OC(CO)C(O)C(O)C2O)C(=O)N1,0,G1,B,None,None,Uncharged
B-856,"InChI=1S/C5H9Cl2N3O2/c6-1-3-8-5(11)10(9-12)4-2-7/h1-4H2,(H,8,11)",-1.7285,ClCCNC(=O)N(CCCl)N=O,0,G1,B,None,None,Uncharged
B-858,InChI=1S/C7H12O2/c1-3-7(8-5-1)4-2-6-9-7/h1-6H2,-0.1078,C1COC2(C1)CCCO2,0,G1,B,None,None,Uncharged
B-861,InChI=1S/C22H12/c1-2-7-17-16(6-1)18-11-10-14-9-8-13-4-3-5-15-12-19(17)22(18)21(14)20(13)15/h1-12H,-9.1627,C1=CC=C2C(=C1)C1=CC=C3C=CC4=C5C(=CC=C4)C=C2C1=C35,0,G1,B,None,None,Uncharged
B-862,"InChI=1S/C20H13N/c1-3-7-15-13(5-1)9-11-17-19(15)20-16-8-4-2-6-14(16)10-12-18(20)21-17/h1-12,21H",-6.6277,N1C2=C(C3=C1C=CC1=C3C=CC=C1)C1=C(C=CC=C1)C=C2,0,G1,B,None,None,Uncharged
B-863,InChI=1S/C18H12/c1-3-7-16-13(5-1)9-11-15-12-10-14-6-2-4-8-17(14)18(15)16/h1-12H,-7.8207,C1=CC2=C(C=C1)C1=C(C=C2)C=CC2=C1C=CC=C2,0,G1,B,None,None,Uncharged
B-864,InChI=1S/C24H14/c1-2-8-17-15(6-1)12-13-21-22(17)14-16-7-5-11-19-18-9-3-4-10-20(18)24(21)23(16)19/h1-14H,-8.4806,C1=CC=C2C(=C1)C1=CC=CC3=CC4=C(C=CC5=C4C=CC=C5)C2=C13,0,G1,B,None,None,Uncharged
B-865,"InChI=1S/C15H10/c1-3-10-7-8-11-4-2-6-13-9-12(5-1)14(10)15(11)13/h1-8H,9H2",-5.2379,C1C2=CC=CC3=C2C2=C(C=CC=C12)C=C3,0,G1,B,None,None,Uncharged
B-866,InChI=1S/C20H12/c1-2-8-15-13(5-1)11-12-17-16-9-3-6-14-7-4-10-18(19(14)16)20(15)17/h1-12H,-8.004,C1=CC2=CC=C3C4=CC=CC5=CC=CC(=C45)C3=C2C=C1,0,G1,B,None,None,Uncharged
B-867,InChI=1S/C20H12/c1-2-7-14-13(6-1)12-19-16-9-4-3-8-15(16)18-11-5-10-17(14)20(18)19/h1-12H,-8.2259,C1=CC=C2C(=C1)C1=CC=CC3=C1C2=CC1=C3C=CC=C1,0,G1,B,None,None,Uncharged
B-868,InChI=1S/C20H12/c1-2-6-15-12-19-17-10-4-8-13-7-3-9-16(20(13)17)18(19)11-14(15)5-1/h1-12H,-8.4989,C1=CC2=CC3=C(C=C2C=C1)C1=C2C3=CC=CC2=CC=C1,0.01055,G3,B,None,None,Uncharged
B-870,"InChI=1S/C20H13NS/c1-3-7-15-13(5-1)9-11-17-19(15)21-20-16-8-4-2-6-14(16)10-12-18(20)22-17/h1-12,21H",-7.9081,N1C2=C(SC3=C1C1=CC=CC=C1C=C3)C=CC1=CC=CC=C21,0,G1,B,None,None,Uncharged
B-871,"InChI=1S/C20H13NS/c1-3-7-15-13(5-1)9-11-17-19(15)22-20-16-8-4-2-6-14(16)10-12-18(20)21-17/h1-12,21H",-6.8786,N1C2=C(SC3=C1C=CC1=CC=CC=C31)C1=CC=CC=C1C=C2,0,G1,B,None,None,Uncharged
B-872,"InChI=1S/C16H11NS/c1-2-6-12-11(5-1)9-10-15-16(12)17-13-7-3-4-8-14(13)18-15/h1-10,17H",-5.8957,N1C2=CC=CC=C2SC2=C1C1=CC=CC=C1C=C2,0,G1,B,None,None,Uncharged
B-873,"InChI=1S/C16H11NS/c1-2-6-12-11(5-1)9-10-14-16(12)18-15-8-4-3-7-13(15)17-14/h1-10,17H",-6.5727,N1C2=CC=CC=C2SC2=C1C=CC1=CC=CC=C21,0,G1,B,None,None,Uncharged
B-874,InChI=1S/C21H13N/c1-3-7-17-14(5-1)11-12-20-19(17)13-16-10-9-15-6-2-4-8-18(15)21(16)22-20/h1-13H,-6.2447,C1=CC2=C(C=C1)C1=CC3=C(N=C1C=C2)C1=C(C=CC=C1)C=C3,0,G1,B,None,None,Uncharged
B-875,InChI=1S/C13H9N/c1-2-6-11-10(5-1)9-14-13-8-4-3-7-12(11)13/h1-9H,-2.7763,C1=CC2=C(C=C1)C1=C(C=CC=C1)N=C2,0,G1,B,None,None,Uncharged
B-876,"InChI=1S/C4H3N5/c1-3-4(6-2-5-1)8-9-7-3/h1-2H,(H,5,6,7,8,9)",-0.2319,[N-]1N=NC2=NC=NC=C12,0,G1,B,None,None,Negative
B-877,InChI=1S/C6H12N2/c1-2-8-5-3-7(1)4-6-8/h1-6H2,0.6033,C1C[NH+]2CCN1CC2,0,G1,B,None,None,Positive
B-879,InChI=1S/C3H3NO/c1-2-4-5-3-1/h1-3H,0.3827,O1C=CC=N1,0,G1,B,None,None,Uncharged
B-880,InChI=1S/C4H4N2/c1-2-4-6-5-3-1/h1-4H,1.0964,C1=CC=NN=C1,0,G1,B,None,None,Uncharged
B-881,InChI=1S/C4H4N2/c1-2-5-4-6-3-1/h1-4H,1.0964,C1=CN=CN=C1,0,G1,B,None,None,Uncharged
B-882,InChI=1S/C7H14/c1-2-4-6-7-5-3-1/h1-7H2,-3.5149,C1CCCCCC1,0,G1,B,None,None,Uncharged
B-883,"InChI=1S/C8H13N2O3PS/c1-3-11-14(15,12-4-2)13-8-7-9-5-6-10-8/h5-7H,3-4H2,1-2H3",-2.338,CCOP(=S)(OCC)OC1=CN=CC=N1,0,G1,B,None,None,Uncharged
B-884,"InChI=1S/C10H19ClNO5P/c1-6-12(7-2)10(13)9(11)8(3)17-18(14,15-4)16-5/h6-7H2,1-5H3/b9-8+",0.5233,CCN(CC)C(=O)C(Cl)=C(C)OP(=O)(OC)OC,0,G1,B,None,None,Uncharged
B-886,"InChI=1S/C8H19O3PS2/c1-4-9-12(13,10-5-2)11-7-8-14-6-3/h4-8H2,1-3H3",-3.634,CCOP(=S)(OCC)OCCSCC,0,G1,B,None,None,Uncharged
B-887,"InChI=1S/C4H6O2/c1-3(5-1)4-2-6-4/h3-4H,1-2H2",1.065,C1OC1C1CO1,0,G1,B,None,None,Uncharged
B-891,"InChI=1S/C9H9Br2NO3/c10-5-1-4(2-6(11)8(5)13)3-7(12)9(14)15/h1-2,7,13H,3,12H2,(H,14,15)/t7-/m0/s1",-1.9281,[NH3+]C(CC1=CC(Br)=C([O-])C(Br)=C1)C([O-])=O,0,G1,B,None,None,Zwitterion
B-893,"InChI=1S/C6H15O4PS2/c1-4-13(8)6-5-12-11(7,9-2)10-3/h4-6H2,1-3H3",0.6086,CCS(=O)CCSP(=O)(OC)OC,0,G1,B,None,None,Uncharged
B-894,InChI=1S/H4N2/c1-2/h1-2H2,1.4942,N[NH3+],0,G1,B,None,None,Positive
B-896,"InChI=1S/C34H47NO11/c1-7-35-15-31(16-41-3)20(37)13-21(42-4)33-19-14-32(40)28(45-30(39)18-11-9-8-10-12-18)22(19)34(46-17(2)36,27(38)29(32)44-6)23(26(33)35)24(43-5)25(31)33/h8-12,19-29,37-38,40H,7,13-16H2,1-6H3/t19-,20-,21+,22-,23+,24+,25-,26?,27+,28-,29+,31+,32-,33+,34-/m1/s1",-3.3187,CC[NH+]1CC2(COC)C3C(OC)C4C1C3(C1CC3(O)C(OC(=O)C5=CC=CC=C5)C1C4(OC(C)=O)C(O)C3OC)C(CC2O)OC,0,G1,B,None,None,Positive
B-897,"InChI=1S/C7H11NO2/c1-4-7(3,5-2)10-6(8)9/h1H,5H2,2-3H3,(H2,8,9)",-0.9456,CCC(C)(OC(N)=O)C#C,0,G1,B,None,None,Uncharged
B-900,"InChI=1S/C4H6O6.K.Na/c5-1(3(7)8)2(6)4(9)10;;/h1-2,5-6H,(H,7,8)(H,9,10);;/q;2*+1/p-2/t1-,2-;;/m1../s1",0.3984,OC(C(O)C([O-])=O)C([O-])=O,0.710847376,G4,B,None,None,Negative
B-901,"InChI=1S/C2HCl2F3/c3-1(4)2(5,6)7/h1H",-1.8623,FC(F)(F)C(Cl)Cl,0,G1,B,None,None,Uncharged
B-903,"InChI=1S/C6H12ClO4P/c1-3-9-12(8,10-4-2)11-6-5-7/h5-6H,3-4H2,1-2H3/b6-5+",-1.3316,CCOP(=O)(OCC)OC=CCl,0,G1,B,None,None,Uncharged
B-905,"InChI=1S/C9H13BrN2O2/c1-4-5(2)12-8(13)7(10)6(3)11-9(12)14/h5H,4H2,1-3H3,(H,11,14)",-2.5057,CCC(C)N1C(=O)NC(C)=C(Br)C1=O,0.00865,G3,B,None,None,Uncharged
B-906,"InChI=1S/C8H11BrN2O2/c1-4(2)11-7(12)6(9)5(3)10-8(11)13/h4H,1-3H3,(H,10,13)",-2.0604,CC(C)N1C(=O)NC(C)=C(Br)C1=O,0,G1,B,None,None,Uncharged
B-907,"InChI=1S/C12H18N2O2/c1-8-6-10(16-12(15)13-3)7-9(2)11(8)14(4)5/h6-7H,1-5H3,(H,13,15)",-3.3469,CNC(=O)OC1=CC(C)=C(N(C)C)C(C)=C1,0,G1,B,None,None,Uncharged
B-908,"InChI=1S/C6H13NO2/c1-3-4(2)5(7)6(8)9/h4-5H,3,7H2,1-2H3,(H,8,9)",-0.5033,CCC(C)C([NH3+])C([O-])=O,0.0746,G3,B,None,None,Zwitterion
B-909,"InChI=1S/C7H5ClO3/c8-4-1-2-6(9)5(3-4)7(10)11/h1-3,9H,(H,10,11)",-1.237,OC1=CC=C(Cl)C=C1C([O-])=O,0.7665,G2,B,None,None,Negative
B-910,InChI=1S/C10H7F/c11-10-7-3-5-8-4-1-2-6-9(8)10/h1-7H,-3.4527,FC1=CC=CC2=CC=CC=C12,0,G1,B,None,None,Uncharged
B-911,"InChI=1S/C9H10FNO/c1-6-5-8(10)3-4-9(6)11-7(2)12/h3-5H,1-2H3,(H,11,12)",-1.3593,CC(=O)NC1=CC=C(F)C=C1C,0,G1,B,None,None,Uncharged
B-912,"InChI=1S/C9H10FNO/c1-6-3-4-9(8(10)5-6)11-7(2)12/h3-5H,1-2H3,(H,11,12)",-1.7403,CC(=O)NC1=CC=C(C)C=C1F,0,G1,B,None,None,Uncharged
B-913,InChI=1S/C6H2F4/c7-3-1-4(8)6(10)2-5(3)9/h1-2H,-2.3757,FC1=CC(F)=C(F)C=C1F,0,G1,B,None,None,Uncharged
B-914,"InChI=1S/C6H13NO2/c1-2-3-4-5(7)6(8)9/h5H,2-4,7H2,1H3,(H,8,9)/t5-/m0/s1",-1.0387,CCCCC([NH3+])C([O-])=O,0,G1,B,None,None,Zwitterion
B-915,"InChI=1S/C16H18O9/c17-9-3-1-8(5-10(9)18)2-4-13(20)25-12-7-16(24,15(22)23)6-11(19)14(12)21/h1-5,11-12,14,17-19,21,24H,6-7H2,(H,22,23)/b4-2+/t11-,12-,14-,16+/m1/s1",-0.9473,OC1CC(O)(CC(OC(=O)C=CC2=CC=C(O)C(O)=C2)C1O)C([O-])=O,0,G1,B,None,None,Negative
B-916,"InChI=1S/C6H13NO2/c1-4(2)3-5(7)6(8)9/h4-5H,3,7H2,1-2H3,(H,8,9)",-1.0456,CC(C)CC([NH3+])C([O-])=O,0.161635067,G5,B,None,None,Zwitterion
B-917,"InChI=1S/C7H14FO2P/c1-11(8,9)10-7-5-3-2-4-6-7/h7H,2-6H2,1H3",-1.6875,CP(F)(=O)OC1CCCCC1,0,G1,B,None,None,Uncharged
B-919,"InChI=1S/C7H6ClF/c8-5-6-3-1-2-4-7(6)9/h1-4H,5H2",-2.541,FC1=CC=CC=C1CCl,0,G1,B,None,None,Uncharged
B-920,InChI=1S/C6H4ClF/c7-5-3-1-2-4-6(5)8/h1-4H,-2.4157,FC1=CC=CC=C1Cl,0,G1,B,None,None,Uncharged
B-921,InChI=1S/C6H4FI/c7-5-1-3-6(8)4-2-5/h1-4H,-3.1257,FC1=CC=C(I)C=C1,0,G1,B,None,None,Uncharged
B-923,"InChI=1S/C2H5F/c1-2-3/h2H2,1H3",-1.3477,CCF,0,G1,B,None,None,Uncharged
B-925,"InChI=1S/C7H11N3O2/c1-10-4-9-3-5(10)2-6(8)7(11)12/h3-4,6H,2,8H2,1H3,(H,11,12)/t6-/m0/s1",0.0727,CN1C=NC=C1CC([NH3+])C([O-])=O,0,G1,B,None,None,Zwitterion
B-926,"InChI=1S/C6H5N2.F6P/c7-8-6-4-2-1-3-5-6;1-7(2,3,4,5)6/h1-5H;/q+1;-1",-1.4438,F[P](F)(F)(F)(F)F.N#[N+]C1=CC=CC=C1,0,G1,B,None,Multi-constituent Substances,Positive
B-927,"InChI=1S/C2H5FO/c3-1-2-4/h4H,1-2H2",1.1934,OCCF,0,G1,B,None,None,Uncharged
B-928,"InChI=1S/C6H16FN2OP/c1-5(2)8-11(7,10)9-6(3)4/h5-6H,1-4H3,(H2,8,9,10)",-0.3574,CC(C)NP(F)(=O)NC(C)C,0,G1,B,None,None,Uncharged
B-930,"InChI=1S/C3H5F3O/c1-2(7)3(4,5)6/h2,7H,1H3",0.3094,CC(O)C(F)(F)F,0,G1,B,None,None,Uncharged
B-931,"InChI=1S/C2Cl2F4/c3-1(4,5)2(6,7)8",-3.0961,FC(F)(F)C(F)(Cl)Cl,0,G1,B,None,None,Uncharged
B-932,"InChI=1S/C2H2F2O2/c3-1(4)2(5)6/h1H,(H,5,6)",1.0176,[O-]C(=O)C(F)F,0,G1,B,None,None,Negative
B-933,"InChI=1S/C19H24O3/c1-18-8-7-12(20)9-11(18)3-4-13-14-5-6-16(22)19(14,2)10-15(21)17(13)18/h9,13-14,17H,3-8,10H2,1-2H3/t13-,14-,17+,18-,19-/m0/s1",-3.4843,CC12CC(=O)C3C(CCC4=CC(=O)CCC34C)C1CCC2=O,0,G1,B,None,None,Uncharged
B-935,"InChI=1S/C9H11FO/c1-2-3-7-6-8(10)4-5-9(7)11/h4-6,11H,2-3H2,1H3",-1.887,CCCC1=CC(F)=CC=C1O,0,G1,B,None,None,Uncharged
B-936,"InChI=1S/C8H10N4O5/c9-8(14)11(3-4-13)10-5-6-1-2-7(17-6)12(15)16/h1-2,5,13H,3-4H2,(H2,9,14)/b10-5+",-2.6852,NC(=O)N(CCO)N=CC1=CC=C(O1)[N+]([O-])=O,0,G1,B,None,None,PureChargeSeparation
B-938,"InChI=1S/C8H5F3O2/c9-8(10,11)6-4-2-1-3-5(6)7(12)13/h1-4H,(H,12,13)",-1.5978,[O-]C(=O)C1=CC=CC=C1C(F)(F)F,0,G1,B,None,None,Negative
B-939,"InChI=1S/C21H28O2/c1-4-21(23)12-9-18-16-6-5-14-13-15(22)7-10-19(14,2)17(16)8-11-20(18,21)3/h1,13,16-18,23H,5-12H2,2-3H3/t16-,17+,18+,19+,20+,21+/m1/s1",-5.6576,CC12CCC3C(CCC4=CC(=O)CCC34C)C1CCC2(O)C#C,0.197352465,G3,B,None,None,Uncharged
B-940,"InChI=1S/C24H40O3/c1-15(4-9-22(26)27)19-7-8-20-18-6-5-16-14-17(25)10-12-23(16,2)21(18)11-13-24(19,20)3/h15-21,25H,4-14H2,1-3H3,(H,26,27)/t15-,16-,17-,18+,19-,20+,21+,23+,24-/m1/s1",-6,CC(CCC([O-])=O)C1CCC2C3CCC4CC(O)CCC4(C)C3CCC12C,0,G1,B,None,None,Negative
B-941,"InChI=1S/C18H26O2/c1-18-9-8-14-13-5-3-12(19)10-11(13)2-4-15(14)16(18)6-7-17(18)20/h10,13-17,20H,2-9H2,1H3/t13-,14+,15+,16-,17-,18-/m0/s1",-1.9484,CC12CCC3C(CCC4=CC(=O)CCC34)C1CCC2O,0,G1,B,None,None,Uncharged
B-942,"InChI=1S/C15H20O4/c1-6-4-11-13(8(3)15(18)19-11)14(17)12-7(2)10(16)5-9(6)12/h6,8-9,11,13-14,17H,4-5H2,1-3H3/t6-,8-,9+,11+,13+,14+/m0/s1",-1.945,CC1C2C(CC(C)C3CC(=O)C(C)=C3C2O)OC1=O,0,G1,B,None,None,Uncharged
B-944,"InChI=1S/C12H11I3N2O4/c1-4(18)16-3-6-8(13)7(12(20)21)10(15)11(9(6)14)17-5(2)19/h3H2,1-2H3,(H,16,18)(H,17,19)(H,20,21)",-2.3208,CC(=O)NCC1=C(I)C(NC(C)=O)=C(I)C(C([O-])=O)=C1I,0,G1,B,None,None,Negative
B-945,"InChI=1S/C6H13NO2/c1-3-4(2)5(7)6(8)9/h4-5H,3,7H2,1-2H3,(H,8,9)/t4-,5+/m0/s1",-0.7875,CCC(C)C([NH3+])C([O-])=O,0,G1,B,None,None,Zwitterion
B-946,"InChI=1S/C8H8O4/c9-6-1-2-7(10)5(3-6)4-8(11)12/h1-3,9-10H,4H2,(H,11,12)",0.7037,OC1=CC=C(O)C(CC([O-])=O)=C1,0,G1,B,None,None,Negative
B-947,"InChI=1S/C5H5N5/c6-5-7-1-3-4(10-5)9-2-8-3/h1-2H,(H3,6,7,8,9,10)",-1.21,NC1=NC=C2NC=NC2=N1,0,G1,B,None,None,Uncharged
B-948,"InChI=1S/C4H8O2/c5-4-1-2-6-3-4/h4-5H,1-3H2",1.055,OC1CCOC1,0,G1,B,None,None,Uncharged
B-949,"InChI=1S/C7H4FNO4/c8-5-2-1-4(7(10)11)3-6(5)9(12)13/h1-3H,(H,10,11)",-1.5809,[O-]C(=O)C1=CC=C(F)C(=C1)[N+]([O-])=O,0,G1,B,None,None,Negative
B-950,"InChI=1S/C7H6ClF/c8-5-6-2-1-3-7(9)4-6/h1-4H,5H2",-2.5436,FC1=CC=CC(CCl)=C1,0,G1,B,None,None,Uncharged
B-951,"InChI=1S/C8H17N/c1-2-5-8-6-3-4-7-9-8/h8-9H,2-7H2,1H3/t8-/m0/s1",-0.8493,CCCC1CCCC[NH2+]1,0,G1,B,None,None,Positive
B-952,"InChI=1S/C3H6F2O/c1-6-2-3(4)5/h3H,2H2,1H3",-0.2836,COCC(F)F,0,G1,B,None,None,Uncharged
B-953,"InChI=1S/C2H4N4/c3-1-6-2(4)5/h(H4,4,5,6)",-0.3087,NC(=N)NC#N,0,G1,B,None,None,Uncharged
B-954,"InChI=1S/C5H6N2/c6-5-2-1-3-7-4-5/h1-4H,6H2",1.0263,NC1=CC=CN=C1,0,G1,B,None,None,Uncharged
B-955,"InChI=1S/C3H6N2O3/c4-3(8)5-1-2(6)7/h1H2,(H,6,7)(H3,4,5,8)",-0.5809,NC(=O)NCC([O-])=O,0,G1,B,None,None,Negative
B-956,"InChI=1S/C4H8N2O3/c5-4(9)6-2-1-3(7)8/h1-2H2,(H,7,8)(H3,5,6,9)",-0.8014,NC(=O)NCCC([O-])=O,0,G1,B,None,None,Negative
B-957,"InChI=1S/C10H18O/c1-9(2)7-4-5-10(9,3)8(11)6-7/h7-8,11H,4-6H2,1-3H3/t7?,8-,10?/m0/s1",-2.319,CC1(C)C2CCC1(C)C(O)C2,0,G1,B,None,None,Uncharged
B-958,"InChI=1S/C10H16O/c1-9(2)7-4-5-10(9,3)8(11)6-7/h7H,4-6H2,1-3H3/t7-,10-/m0/s1",-3.1825,CC1(C)C2CCC1(C)C(=O)C2,0,G1,B,None,None,Uncharged
B-959,"InChI=1S/C19H24N2O2/c1-2-13-12-21-9-7-14(13)11-17(21)19-18(22,8-10-23-19)15-5-3-4-6-16(15)20-19/h2-6,13-14,17,20,22H,1,7-12H2/t13-,14-,17-,18+,19-/m0/s1",-2.6706,OC12CCOC1(NC1=CC=CC=C21)C1CC2CC[NH+]1CC2C=C,0,G1,B,None,None,Positive
B-960,"InChI=1S/C22H30N2O2/c1-4-21-10-6-13-23-14-12-22(20(21)23)16-7-5-8-17(26-3)19(16)24(15(2)25)18(22)9-11-21/h5,7-8,18,20H,4,6,9-14H2,1-3H3/t18-,20-,21-,22-/m1/s1",-1.3269,CCC12CCC[NH+]3CCC4(C(CC1)N(C(C)=O)C1=C4C=CC=C1OC)C23,0,G1,B,None,None,Positive
B-961,"InChI=1S/C14H10O3/c15-13(16)14(17)11-7-3-1-5-9(11)10-6-2-4-8-12(10)14/h1-8,17H,(H,15,16)",-1.9657,OC1(C([O-])=O)C2=CC=CC=C2C2=CC=CC=C12,0,G1,B,None,None,Negative
B-962,"InChI=1S/C22H29NO2/c1-5-21(24)25-22(18(2)17-23(3)4,20-14-10-7-11-15-20)16-19-12-8-6-9-13-19/h6-15,18H,5,16-17H2,1-4H3/t18-,22+/m1/s1",-5.0097,CCC(=O)OC(CC1=CC=CC=C1)(C(C)C[NH+](C)C)C1=CC=CC=C1,0,G1,B,None,None,Positive
B-964,"InChI=1S/C4H8Cl2O2S/c5-1-3-9(7,8)4-2-6/h1-4H2",-1.5031,ClCCS(=O)(=O)CCCl,0,G1,B,None,None,Uncharged
B-965,"InChI=1S/C2H7N3/c1-5-2(3)4/h1H3,(H4,3,4,5)",-1.6135,CNC(N)=[NH2+],0,G1,B,None,None,Positive
B-966,"InChI=1S/C9H9N3O2S2/c10-6-1-3-7(4-2-6)16(13,14)8-5-12-9(11)15-8/h1-5H,10H2,(H2,11,12)",-2.805,NC1=NC=C(S1)S(=O)(=O)C1=CC=C(N)C=C1,0,G1,B,None,None,Uncharged
B-968,"InChI=1S/C10H16O3/c1-6(11)8-4-7(5-9(12)13)10(8,2)3/h7-8H,4-5H2,1-3H3,(H,12,13)",-0.5752,CC(=O)C1CC(CC([O-])=O)C1(C)C,0,G1,B,None,None,Negative