ID,InChI,Solubility,SMILEScurated,SD,Group,Dataset,Composition,Error,Charge
B-2250,"InChI=1S/C12H16O3/c1-2-3-4-9-15-12(14)10-5-7-11(13)8-6-10/h5-8,13H,2-4,9H2,1H3",-3.8135,CCCCCOC(=O)C1=CC=C(O)C=C1,0,G1,B,None,None,Uncharged
B-2251,"InChI=1S/C21H28O2/c1-3-20-11-9-17-16-8-6-15(22)13-14(16)5-7-18(17)19(20)10-12-21(20,23)4-2/h2,13,16-19,23H,3,5-12H2,1H3/t16-,17+,18+,19-,20-,21-/m0/s1",-5.2567,CCC12CCC3C(CCC4=CC(=O)CCC34)C1CCC2(O)C#C,0,G1,B,None,None,Uncharged
B-2252,"InChI=1S/C9H8O3/c10-4-3-7-1-2-8-9(5-7)12-6-11-8/h1-2,4-5H,3,6H2",-1.96,O=CCC1=CC=C2OCOC2=C1,0,G1,B,None,None,Uncharged
B-2253,"InChI=1S/C11H10O3/c12-10-6-8(11(13)14)5-7-3-1-2-4-9(7)10/h1-4,8H,5-6H2,(H,13,14)",-2.1031,[O-]C(=O)C1CC(=O)C2=CC=CC=C2C1,0,G1,B,None,None,Negative
B-2254,"InChI=1S/C9H14ClN5O2/c1-3-11-8-13-7(10)14-9(15-8)12-5-6(16)17-4-2/h3-5H2,1-2H3,(H2,11,12,13,14,15)",-2.9374,CCNC1=NC(Cl)=NC(NCC(=O)OCC)=N1,0,G1,B,None,None,Uncharged
B-2255,"InChI=1S/C6H12N2O5/c7-3(1-9)5(11)8-4(2-10)6(12)13/h3-4,9-10H,1-2,7H2,(H,8,11)(H,12,13)",-0.5847,[NH3+]C(CO)C(=O)NC(CO)C([O-])=O,0,G1,B,None,None,Zwitterion
B-2256,"InChI=1S/C5H8N2O2/c8-6-4-2-1-3-5(4)7-9/h6,8H,1-3H2",-1.9937,ON=C1CCCC1=NO,0,G1,B,None,None,Uncharged
B-2257,"InChI=1S/C11H13NO/c1-9-7-8-11(13)12(9)10-5-3-2-4-6-10/h2-6,9H,7-8H2,1H3",-0.8457,CC1CCC(=O)N1C1=CC=CC=C1,0,G1,B,None,None,Uncharged
B-2259,"InChI=1S/C9H7NO6/c1-16-9(13)7-5(8(11)12)3-2-4-6(7)10(14)15/h2-4H,1H3,(H,11,12)",-2.0853,COC(=O)C1=C(C=CC=C1[N+]([O-])=O)C([O-])=O,0,G1,B,None,None,Negative
B-2260,"InChI=1S/C11H11NO6/c1-6(2)18-11(15)7-4-3-5-8(12(16)17)9(7)10(13)14/h3-6H,1-2H3,(H,13,14)/p-1",-2.3466,CC(C)OC(=O)C1=CC=CC(=C1C([O-])=O)[N+]([O-])=O,0,G1,B,None,None,Negative
B-2261,"InChI=1S/C11H11NO6/c1-6(2)18-11(15)9-7(10(13)14)4-3-5-8(9)12(16)17/h3-6H,1-2H3,(H,13,14)/p-1",-2.4897,CC(C)OC(=O)C1=C(C=CC=C1[N+]([O-])=O)C([O-])=O,0,G1,B,None,None,Negative
B-2262,"InChI=1S/C12H13NO6/c1-12(2,3)19-11(16)7-5-4-6-8(13(17)18)9(7)10(14)15/h4-6H,1-3H3,(H,14,15)/p-1",-3.0467,CC(C)(C)OC(=O)C1=CC=CC(=C1C([O-])=O)[N+]([O-])=O,0,G1,B,None,None,Negative
B-2263,"InChI=1S/C13H15NO6/c1-8(2)6-7-20-13(17)9-4-3-5-10(14(18)19)11(9)12(15)16/h3-5,8H,6-7H2,1-2H3,(H,15,16)/p-1",-3.0689,CC(C)CCOC(=O)C1=CC=CC(=C1C([O-])=O)[N+]([O-])=O,0,G1,B,None,None,Negative
B-2264,"InChI=1S/C9H13O2P/c1-6-4-7(2)9(12(10)11)8(3)5-6/h4-5,12H,1-3H3,(H,10,11)",-2.7896,CC1=CC(C)=C(C(C)=C1)P([O-])=O,0,G1,B,None,None,Negative
B-2265,"InChI=1S/C5H12O/c1-4-5(2)6-3/h5H,4H2,1-3H3",-0.7306,CCC(C)OC,0,G1,B,None,None,Uncharged
B-2266,"InChI=1S/C6H12O3/c1-2-3-9-6(4-7)5-8/h2,6-8H,1,3-5H2",0.481,OCC(CO)OCC=C,0,G1,B,None,None,Uncharged
B-2267,"InChI=1S/C2H5N5O4/c1-5(7(10)11)2(3)4-6(8)9/h1H3,(H2,3,4)",-0.6104,CN(C(N)=N[N+]([O-])=O)[N+]([O-])=O,0,G1,B,None,None,PureChargeSeparation
B-2268,"InChI=1S/C12H13NO6/c1-3-7(2)19-12(16)8-5-4-6-9(13(17)18)10(8)11(14)15/h4-7H,3H2,1-2H3,(H,14,15)/p-1",-2.7193,CCC(C)OC(=O)C1=CC=CC(=C1C([O-])=O)[N+]([O-])=O,0,G1,B,None,None,Negative
B-2270,"InChI=1S/C8H16/c1-7-5-3-4-6-8(7)2/h7-8H,3-6H2,1-2H3/t7-,8-/m0/s1",-4.3341,CC1CCCCC1C,0,G1,B,None,None,Uncharged
B-2272,"InChI=1S/C3H7NO3/c4-2(1-5)3(6)7/h2,5H,1,4H2,(H,6,7)/t2-/m0/s1",-0.3861,[NH3+]C(CO)C([O-])=O,0,G1,B,None,None,Zwitterion
B-2273,"InChI=1S/C5H9NO4/c6-3(5(9)10)1-2-4(7)8/h3H,1-2,6H2,(H,7,8)(H,9,10)",-0.9916,[NH3+]C(CCC([O-])=O)C([O-])=O,0.158552533,G5,B,None,None,Zwitterion
B-2274,InChI=1S/C12H8Cl2O/c13-9-5-7-10(8-6-9)15-12-4-2-1-3-11(12)14/h1-8H,-5.52,ClC1=CC=C(OC2=CC=CC=C2Cl)C=C1,0,G1,B,None,None,Uncharged
B-2275,"InChI=1S/C11H14N2O2/c1-8(14)12-11(13-9(2)15)10-6-4-3-5-7-10/h3-7,11H,1-2H3,(H,12,14)(H,13,15)",-1.3144,CC(=O)NC(NC(C)=O)C1=CC=CC=C1,0,G1,B,None,None,Uncharged
B-2277,"InChI=1S/C7H14NO5P/c1-6(5-7(9)8-2)13-14(10,11-3)12-4/h5H,1-4H3,(H,8,9)/b6-5+",0.6514,CNC(=O)C=C(C)OP(=O)(OC)OC,0,G1,B,None,None,Uncharged
B-2278,"InChI=1S/C7H4Cl4O/c1-12-7-5(10)3(8)2-4(9)6(7)11/h2H,1H3",-5.1307,COC1=C(Cl)C(Cl)=CC(Cl)=C1Cl,0,G1,B,None,None,Uncharged
B-2279,"InChI=1S/C7H15N3O6/c8-7(16)10-9-1-3(12)5(14)6(15)4(13)2-11/h1,3-6,11-15H,2H2,(H3,8,10,16)/b9-1+",-0.4257,NC(=O)NN=CC(O)C(O)C(O)C(O)CO,0,G1,B,None,None,Uncharged
B-2280,"InChI=1S/C10H13NO2/c1-2-3-7-13-10(12)9-5-4-6-11-8-9/h4-6,8H,2-3,7H2,1H3",-1.8367,CCCCOC(=O)C1=CC=CN=C1,0,G1,B,None,None,Uncharged
B-2281,"InChI=1S/C10H12O3/c11-7-4-8-13-10(12)9-5-2-1-3-6-9/h1-3,5-6,11H,4,7-8H2",-1.2558,OCCCOC(=O)C1=CC=CC=C1,0,G1,B,None,None,Uncharged
B-2283,"InChI=1S/C11H13NO4/c1-12-11(13)16-9-5-3-2-4-8(9)10-14-6-7-15-10/h2-5,10H,6-7H2,1H3,(H,12,13)",-1.5706,CNC(=O)OC1=CC=CC=C1C1OCCO1,0,G1,B,None,None,Uncharged
B-2285,InChI=1S/C12H9ClO/c13-10-6-8-12(9-7-10)14-11-4-2-1-3-5-11/h1-9H,-4.7925,ClC1=CC=C(OC2=CC=CC=C2)C=C1,0,G1,B,None,None,Uncharged
B-2287,"InChI=1S/C9H11Br/c1-7(2)8-5-3-4-6-9(8)10/h3-7H,1-2H3",-4.1898,CC(C)C1=CC=CC=C1Br,0,G1,B,None,None,Uncharged
B-2289,"InChI=1S/C10H23O2P/c1-4-7-9-13(11,12-6-3)10-8-5-2/h4-10H2,1-3H3",-1.2005,CCCCP(=O)(CCCC)OCC,0,G1,B,None,None,Uncharged
B-2290,"InChI=1S/C7H6ClNO3/c1-4-2-7(10)6(9(11)12)3-5(4)8/h2-3,10H,1H3",-4.3901,CC1=CC([O-])=C(C=C1Cl)[N+]([O-])=O,0,G1,B,None,None,Negative
B-2291,"InChI=1S/C7H5Cl4NO/c1-13-6-3-4(7(9,10)11)2-5(8)12-6/h2-3H,1H3",-4.3635,COC1=CC(=CC(Cl)=N1)C(Cl)(Cl)Cl,0,G1,B,None,None,Uncharged
B-2292,"InChI=1S/C12H15NO3/c1-4-16-12-7-5-11(6-8-12)13(9(2)14)10(3)15/h5-8H,4H2,1-3H3",-1.947,CCOC1=CC=C(C=C1)N(C(C)=O)C(C)=O,0,G1,B,None,None,Uncharged
B-2293,"InChI=1S/C10H23O4P/c1-4-7-9-13-15(11,12-6-3)14-10-8-5-2/h4-10H2,1-3H3",-1.8456,CCCCOP(=O)(OCC)OCCCC,0,G1,B,None,None,Uncharged
B-2294,"InChI=1S/C9H21O4P/c1-4-6-8-12-14(10,11-3)13-9-7-5-2/h4-9H2,1-3H3",-1.4995,CCCCOP(=O)(OC)OCCCC,0,G1,B,None,None,Uncharged
B-2295,"InChI=1S/C10H7NO2/c12-10(13)8-3-1-5-9-7(8)4-2-6-11-9/h1-6H,(H,12,13)",-2.6774,[O-]C(=O)C1=CC=CC2=NC=CC=C12,0,G1,B,None,None,Negative
B-2296,"InChI=1S/C8H7Cl2NO2/c1-13-8(12)5-2-4(9)3-6(11)7(5)10/h2-3H,11H2,1H3",-3.2634,COC(=O)C1=CC(Cl)=CC(N)=C1Cl,0,G1,B,None,None,Uncharged
B-2297,"InChI=1S/C8H18O/c1-6-8(5,9)7(2,3)4/h9H,6H2,1-5H3",-1.2708,CCC(C)(O)C(C)(C)C,0,G1,B,None,None,Uncharged
B-2298,"InChI=1S/C8H16N2O2/c1-9(2)7(11)5-6-8(12)10(3)4/h5-6H2,1-4H3",0.5035,CN(C)C(=O)CCC(=O)N(C)C,0,G1,B,None,None,Uncharged
B-2299,"InChI=1S/C6H10O4Se2/c7-5(8)1-3-11-12-4-2-6(9)10/h1-4H2,(H,7,8)(H,9,10)",-2.2681,[O-]C(=O)CC[Se][Se]CCC([O-])=O,0,G1,B,None,None,Negative
B-2300,"InChI=1S/C6H10N2O4/c9-3-7-1-5(11)8(4-10)2-6(7)12/h9-10H,1-4H2",-0.4168,OCN1CC(=O)N(CO)CC1=O,0,G1,B,None,None,Uncharged
B-2301,"InChI=1S/C7H10N2O3/c1-3(2)4-5(10)8-7(12)9-6(4)11/h3-4H,1-2H3,(H2,8,9,10,11,12)",-1.4556,CC(C)[C-]1C(=O)NC(=O)NC1=O,0,G1,B,None,None,Negative
B-2302,"InChI=1S/C16H18NO4P/c18-22(17-11-13-19-14-12-17,20-15-7-3-1-4-8-15)21-16-9-5-2-6-10-16/h1-10H,11-14H2",-2.1425,O=P(OC1=CC=CC=C1)(OC1=CC=CC=C1)N1CCOCC1,0,G1,B,None,None,Uncharged
B-2303,InChI=1S/C3H6N2O2/c1-3(6)5(2)4-7/h1-2H3,-0.7684,CN(N=O)C(C)=O,0,G1,B,None,None,Uncharged
B-2304,"InChI=1S/C12H8Cl6O/c13-8-5-3(2-19)1-4-6(5)9(14,12(8,17)18)11(16)7(4)10(8,11)15/h2-7H,1H2",-7.2006,ClC12C3C4CC(C=O)C5C4C(Cl)(C13Cl)C(Cl)(Cl)C25Cl,0,G1,B,None,None,Uncharged
B-2305,InChI=1S/O2S/c1-3-2,0.2235,O=S=O,0,G1,B,None,None,Uncharged
B-2306,"InChI=1S/C8H8N4O6/c1-2-9-8-6(11(15)16)3-5(10(13)14)4-7(8)12(17)18/h3-4,9H,2H2,1H3",-3.4085,CCNC1=C(C=C(C=C1[N+]([O-])=O)[N+]([O-])=O)[N+]([O-])=O,0,G1,B,None,None,PureChargeSeparation
B-2307,"InChI=1S/C7H6N2OS/c8-7-9-6-4(10)2-1-3-5(6)11-7/h1-3,10H,(H2,8,9)",-1.9196,NC1=NC2=C(O)C=CC=C2S1,0,G1,B,None,None,Uncharged
B-2308,"InChI=1S/C6H8O4/c1-6(4(7)8)2-3-10-5(6)9/h2-3H2,1H3,(H,7,8)",0.8412,CC1(CCOC1=O)C([O-])=O,0,G1,B,None,None,Negative
B-2309,"InChI=1S/C16H8O6/c17-13-7-3-1-2-4-8(7)14(18)11-9(13)5-6-10(15(19)20)12(11)16(21)22/h1-6H,(H,19,20)(H,21,22)",-2.8141,[O-]C(=O)C1=CC=C2C(=O)C3=CC=CC=C3C(=O)C2=C1C([O-])=O,0,G1,B,None,None,Negative
B-2310,"InChI=1S/C9H13N3O3/c10-7-3-4-12(9(14)11-7)8-2-1-6(5-13)15-8/h3-4,6,8,13H,1-2,5H2,(H2,10,11,14)/t6-,8+/m0/s1",-0.4416,NC1=NC(=O)N(C=C1)C1CCC(CO)O1,0,G1,B,None,None,Uncharged
B-2311,"InChI=1S/C8H16O4/c1-7(9-3)5-12-8(2,10-4)6-11-7/h5-6H2,1-4H3",-1.246,COC1(C)COC(C)(CO1)OC,0,G1,B,None,None,Uncharged
B-2312,"InChI=1S/C12H14O4/c1-3-4-9-5-6-10(11(7-9)15-2)16-8-12(13)14/h3-7H,8H2,1-2H3,(H,13,14)/p-1/b4-3+",-1.5826,COC1=CC(C=CC)=CC=C1OCC([O-])=O,0,G1,B,None,None,Negative
B-2313,"InChI=1S/C13H25NO/c15-13-11-9-7-5-3-1-2-4-6-8-10-12-14-13/h1-12H2,(H,14,15)",-2.626,O=C1CCCCCCCCCCCCN1,0,G1,B,None,None,Uncharged
B-2314,"InChI=1S/C7H5Cl3O/c8-5-1-4(3-11)2-6(9)7(5)10/h1-2,11H,3H2",-3.0948,OCC1=CC(Cl)=C(Cl)C(Cl)=C1,0,G1,B,None,None,Uncharged
B-2315,InChI=1S/I2/c1-2,-2.886,II,0,G1,B,None,None,Uncharged
B-2316,"InChI=1S/C8H6N2O/c11-7-3-1-2-6-4-9-5-10-8(6)7/h1-5,11H",-2.0361,OC1=CC=CC2=CN=CN=C12,0,G1,B,None,None,Uncharged
B-2317,"InChI=1S/C8H18OS2/c1-3-5-7-10-11(9)8-6-4-2/h3-8H2,1-2H3",-2.2886,CCCCSS(=O)CCCC,0,G1,B,None,None,Uncharged
B-2318,"InChI=1S/C8H11NO/c9-6-8(10)7-4-2-1-3-5-7/h1-5,8,10H,6,9H2",-0.4764,[NH3+]CC(O)C1=CC=CC=C1,0,G1,B,None,None,Positive
B-2319,"InChI=1S/C4H8Cl2/c1-3(5)4(2)6/h3-4H,1-2H3",-2.3541,CC(Cl)C(C)Cl,0.17295,G3,B,None,None,Uncharged
B-2320,"InChI=1S/C11H9NO3/c13-11(10-7-4-8-15-10)12(14)9-5-2-1-3-6-9/h1-8,14H",-3.194,ON(C(=O)C1=CC=CO1)C1=CC=CC=C1,0,G1,B,None,None,Uncharged
B-2321,InChI=1S/FH/h1H,1.6988,[F-],0,G1,B,None,None,Negative
B-2322,"InChI=1S/H2O4S/c1-5(2,3)4/h(H2,1,2,3,4)",1.0084,[O-]S([O-])(=O)=O,0,G1,B,None,None,Negative
B-2323,"InChI=1S/C9H11NO2/c1-2-6-12-9(11)8-4-3-5-10-7-8/h3-5,7H,2,6H2,1H3",-1.2403,CCCOC(=O)C1=CC=CN=C1,0,G1,B,None,None,Uncharged
B-2324,"InChI=1S/C6H8N4O4/c1-9-4(3-14-6(7)11)8-2-5(9)10(12)13/h2H,3H2,1H3,(H2,7,11)",-1.8433,CN1C(COC(N)=O)=NC=C1[N+]([O-])=O,0,G1,B,None,None,PureChargeSeparation
B-2325,"InChI=1S/C8H15NO3/c1-3-4-5-7(8(11)12)9-6(2)10/h7H,3-5H2,1-2H3,(H,9,10)(H,11,12)",-0.6823,CCCCC(NC(C)=O)C([O-])=O,0.169,G3,B,None,None,Negative
B-2327,"InChI=1S/C14H19O6P/c1-11(20-21(16,17-3)18-4)10-14(15)19-12(2)13-8-6-5-7-9-13/h5-10,12H,1-4H3/b11-10+",-2.4973,COP(=O)(OC)OC(C)=CC(=O)OC(C)C1=CC=CC=C1,0,G1,B,None,None,Uncharged
B-2328,"InChI=1S/C11H7ClO2/c12-9-6-5-7-3-1-2-4-8(7)10(9)11(13)14/h1-6H,(H,13,14)",-2.3152,[O-]C(=O)C1=C(Cl)C=CC2=CC=CC=C12,0,G1,B,None,None,Negative
B-2329,"InChI=1S/C17H26ClNO2/c1-4-11-21-12-10-19(16(20)13-18)17-14(5-2)8-7-9-15(17)6-3/h7-9H,4-6,10-13H2,1-3H3",-3.795,CCCOCCN(C(=O)CCl)C1=C(CC)C=CC=C1CC,0,G1,B,None,None,Uncharged
B-2331,InChI=1S/N2/c1-2,-0.1901,N#N,0,G1,B,None,None,Uncharged
B-2332,"InChI=1S/Cu.H2O4S.5H2O/c;1-5(2,3)4;;;;;/h;(H2,1,2,3,4);5*1H2/q+2;;;;;;/p-2",-0.8922,[Cu++].[O-]S([O-])(=O)=O,0,G1,B,None,None,Negative
B-2333,"InChI=1S/AsH3O4/c2-1(3,4)5/h(H3,2,3,4,5)",0.6187,O[As]([O-])([O-])=O,0,G1,B,None,None,Negative
B-2334,InChI=1S/O2/c1-2,0.0691,O=O,0,G1,B,None,None,Uncharged
B-2335,InChI=1S/Cl2/c1-2,-1.0513,ClCl,0.041342722,G5,B,None,None,Uncharged
B-2337,"InChI=1S/C7H13O6P/c1-6(5-7(8)10-2)13-14(9,11-3)12-4/h5H,1-4H3/b6-5+",0.4276,COC(=O)C=C(C)OP(=O)(OC)OC,0.11095,G3,B,None,None,Uncharged
B-2338,"InChI=1S/C3H5Cl3/c1-2-3(4,5)6/h2H2,1H3",-1.8898,CCC(Cl)(Cl)Cl,0,G1,B,None,None,Uncharged
B-2340,"InChI=1S/2C8H19O3PS2/c1-4-10-12(9,11-5-2)14-8-7-13-6-3;1-4-9-12(13,10-5-2)11-7-8-14-6-3/h2*4-8H2,1-3H3",-3.9351,CCOP(=S)(OCC)OCCSCC,0,G1,B,None,None,Uncharged
B-2341,"InChI=1S/2C13H19NO2/c1-4-6-10(2)11-7-5-8-12(9-11)16-13(15)14-3;1-4-10(5-2)11-7-6-8-12(9-11)16-13(15)14-3/h5,7-10H,4,6H2,1-3H3,(H,14,15);6-10H,4-5H2,1-3H3,(H,14,15)",-3.947,CCC(CC)C1=CC=CC(OC(=O)NC)=C1,0,G1,B,None,None,Uncharged
B-2342,"InChI=1S/C10H22O2/c1-2-3-4-5-6-7-9-12-10-8-11/h11H,2-10H2,1H3",-2.125,CCCCCCCCOCCO,0,G1,B,None,None,Uncharged
B-2343,"InChI=1S/C5H9NO/c1-4(2)5(7)3-6/h4-5,7H,1-2H3/t5-/m0/s1",0.3048,CC(C)C(O)C#N,0,G1,B,None,None,Uncharged
B-2344,"InChI=1S/C8H16O2/c1-4-8(5-2)6-10-7(3)9/h8H,4-6H2,1-3H3",-1.3528,CCC(CC)COC(C)=O,0,G1,B,None,None,Uncharged
B-2346,"InChI=1S/C3H4Cl2/c4-2-1-3-5/h1-2H,3H2/b2-1+",-1.598,ClCC=CCl,0,G1,B,None,None,Uncharged
B-2347,"InChI=1S/C6H8O4/c1-3-2-6(3,4(7)8)5(9)10/h3H,2H2,1H3,(H,7,8)(H,9,10)",0.8412,CC1CC1(C([O-])=O)C([O-])=O,0,G1,B,None,None,Negative
B-2348,"InChI=1S/C16H14O4/c17-14(18)11-16(15(19)20,12-7-3-1-4-8-12)13-9-5-2-6-10-13/h1-10H,11H2,(H,17,18)(H,19,20)",-2.4318,[O-]C(=O)CC(C([O-])=O)(C1=CC=CC=C1)C1=CC=CC=C1,0,G1,B,None,None,Negative
B-2349,"InChI=1S/C3H2Br2N2O/c4-3(5,1-6)2(7)8/h(H2,7,8)",-1.2075,NC(=O)C(Br)(Br)C#N,0,G1,B,None,None,Uncharged
B-2350,"InChI=1S/C23H28ClN3O5S/c1-32-21-12-9-17(24)15-20(21)22(28)25-14-13-16-7-10-19(11-8-16)33(30,31)27-23(29)26-18-5-3-2-4-6-18/h7-12,15,18H,2-6,13-14H2,1H3,(H,25,28)(H2,26,27,29)",-5.0917,COC1=CC=C(Cl)C=C1C(=O)NCCC1=CC=C(C=C1)S(=O)(=O)[N-]C(=O)NC1CCCCC1,0,G1,B,None,None,Negative
B-2351,"InChI=1S/C2H8NO2PS/c1-5-6(3,4)7-2/h1-2H3,(H2,3,4)",0.8504,COP(N)(=O)SC,0,G1,B,None,None,Uncharged
B-2353,"InChI=1S/C8H17NO/c1-8(2)7-9-3-5-10-6-4-9/h8H,3-7H2,1-2H3",-0.7089,CC(C)C[NH+]1CCOCC1,0,G1,B,None,None,Positive
B-2354,"InChI=1S/C11H11Br2NO4/c1-5(15)14-9(11(17)18)4-6-2-7(12)10(16)8(13)3-6/h2-3,9,16H,4H2,1H3,(H,14,15)(H,17,18)/t9-/m0/s1",-2.183,CC(=O)NC(CC1=CC(Br)=C([O-])C(Br)=C1)C([O-])=O,0,G1,B,None,None,Negative
B-2355,"InChI=1S/C10H7NO2/c12-10(13)8-3-4-9-7(6-8)2-1-5-11-9/h1-6H,(H,12,13)",-0.0456,[O-]C(=O)C1=CC2=CC=CN=C2C=C1,0,G1,B,None,None,Negative
B-2356,"InChI=1S/C12H16N2O/c15-12(10-5-4-8-13-9-10)14-11-6-2-1-3-7-11/h4-5,8-9,11H,1-3,6-7H2,(H,14,15)",-2.319,O=C(NC1CCCCC1)C1=CC=CN=C1,0,G1,B,None,None,Uncharged
B-2357,"InChI=1S/C10H16O2/c1-9(2)6-4-5-10(9,3)8(12)7(6)11/h6-7,11H,4-5H2,1-3H3",-0.9249,CC1(C)C2CCC1(C)C(=O)C2O,0,G1,B,None,None,Uncharged
B-2358,"InChI=1S/C6H5BrN2O2/c7-5-2-1-4(9(10)11)3-6(5)8/h1-3H,8H2",-3.5583,NC1=CC(=CC=C1Br)[N+]([O-])=O,0,G1,B,None,None,PureChargeSeparation
B-2359,"InChI=1S/C11H24O3/c1-2-3-4-5-6-7-8-14-10-11(13)9-12/h11-13H,2-10H2,1H3",-1.9208,CCCCCCCCOCC(O)CO,0,G1,B,None,None,Uncharged
B-2360,"InChI=1S/C13H17ClO3/c1-3-16-13(15)5-4-8-17-12-7-6-11(14)9-10(12)2/h6-7,9H,3-5,8H2,1-2H3",-4.4095,CCOC(=O)CCCOC1=CC=C(Cl)C=C1C,0,G1,B,None,None,Uncharged
B-2362,"InChI=1S/C21H23BrFNO2/c22-18-7-5-17(6-8-18)21(26)11-14-24(15-12-21)13-1-2-20(25)16-3-9-19(23)10-4-16/h3-10,26H,1-2,11-15H2",-3.6693,OC1(CC[NH+](CCCC(=O)C2=CC=C(F)C=C2)CC1)C1=CC=C(Br)C=C1,0,G1,B,None,None,Positive
B-2363,"InChI=1S/C7H4Cl4O/c1-2-3(8)5(10)6(11)7(12)4(2)9/h12H,1H3",-4.6021,CC1=C(Cl)C([O-])=C(Cl)C(Cl)=C1Cl,0,G1,B,None,None,Negative
B-2364,"InChI=1S/C4H11O4P/c1-4-8-9(5,6-2)7-3/h4H2,1-3H3",0.5112,CCOP(=O)(OC)OC,0,G1,B,None,None,Uncharged
B-2365,"InChI=1S/C9H21O3PS3/c1-6-11-13(14,12-7-2)15-8-16(10)9(3,4)5/h6-8H2,1-5H3",-2.4421,CCOP(=S)(OCC)SCS(=O)C(C)(C)C,0,G1,B,None,None,Uncharged
B-2366,"InChI=1S/C14H17NO6/c1-8(2)20-13(16)10-5-11(14(17)21-9(3)4)7-12(6-10)15(18)19/h5-9H,1-4H3",-5.0389,CC(C)OC(=O)C1=CC(=CC(=C1)C(=O)OC(C)C)[N+]([O-])=O,0.42055,G3,B,None,None,PureChargeSeparation
B-2368,"InChI=1S/C35H44O16/c1-8-15(2)24(38)49-18-12-19(48-16(3)36)32(26(39)43-6)13-46-21-22(32)31(18)14-47-34(42,27(40)44-7)25(31)29(4,23(21)37)35-20-11-17(30(35,5)51-35)33(41)9-10-45-28(33)50-20/h8-10,17-23,25,28,37,41-42H,11-14H2,1-7H3/b15-8+/t17-,18+,19-,20+,21-,22-,23-,25+,28+,29-,30+,31+,32+,33+,34+,35+/m1/s1",-3.4428,COC(=O)C1(O)OCC23C4C(OCC4(C(CC2OC(=O)C(C)=CC)OC(C)=O)C(=O)OC)C(O)C(C)(C13)C12OC1(C)C1CC2OC2OC=CC12O,0,G1,B,None,None,Uncharged
B-2369,"InChI=1S/C2H6ClO3P/c3-1-2-7(4,5)6/h1-2H2,(H2,4,5,6)",0.8401,OP([O-])(=O)CCCl,0,G1,B,None,None,Negative
B-2370,"InChI=1S/C6H7.3CO.Mn/c1-6-4-2-3-5-6;3*1-2;/h2-5H,1H3;;;;/q-1;;;;",-3.8762,CC1=CCC=C1,0.231217876,G3,B,None,Multi-constituent Substances,Uncharged
B-2371,"InChI=1S/C24H27BrN6O10/c1-5-39-23-13-19(27-28-20-10-17(30(35)36)11-22(24(20)25)31(37)38)18(26-14(2)32)12-21(23)29(6-8-40-15(3)33)7-9-41-16(4)34/h10-13H,5-9H2,1-4H3,(H,26,32)",-8.8336,CCOC1=CC(N=NC2=CC(=CC(=C2Br)[N+]([O-])=O)[N+]([O-])=O)=C(NC(C)=O)C=C1N(CCOC(C)=O)CCOC(C)=O,0,G1,B,None,None,PureChargeSeparation
B-2372,"InChI=1S/C11H15NO2/c1-7-5-8(2)9(3)10(6-7)14-11(13)12-4/h5-6H,1-4H3,(H,12,13)",-1.9851,CNC(=O)OC1=CC(C)=CC(C)=C1C,0,G1,B,None,None,Uncharged
B-2373,"InChI=1S/C6H10Ge2O7/c9-5(10)1-3-7(13)15-8(14)4-2-6(11)12/h1-4H2,(H,9,10)(H,11,12)",-1.4932,[O-]C(=O)CC[Ge](=O)O[Ge](=O)CCC([O-])=O,0,G1,B,None,None,Negative
B-2374,"InChI=1S/C15H16N2O2/c1-19-14-6-4-12(5-7-14)15(18,11-2-3-11)13-8-16-10-17-9-13/h4-11,18H,2-3H2,1H3",-2.5959,COC1=CC=C(C=C1)C(O)(C1CC1)C1=CN=CN=C1,0,G1,B,None,None,Uncharged
B-2375,"InChI=1S/C9H20O3/c1-7(2)11-5-9(10)6-12-8(3)4/h7-10H,5-6H2,1-4H3",0.0549,CC(C)OCC(O)COC(C)C,0,G1,B,None,None,Uncharged
B-2376,"InChI=1S/C9H8O4/c1-5(10)6-2-3-8(11)7(4-6)9(12)13/h2-4,11H,1H3,(H,12,13)/p-1",-2.2304,CC(=O)C1=CC=C(O)C(=C1)C([O-])=O,0,G1,B,None,None,Negative
B-2377,"InChI=1S/C3H4Cl4/c4-1-3(6,7)2-5/h1-2H2",-2.5785,ClCC(Cl)(Cl)CCl,0,G1,B,None,None,Uncharged
B-2378,"InChI=1S/C36H56O13/c1-18-30(24(37)14-27(39)47-18)46-17-25-28(40)31(44-4)29(41)32(49-25)48-20-5-9-33(2)22-6-10-34(3)21(19-13-26(38)45-16-19)8-12-36(34,43)23(22)7-11-35(33,42)15-20/h13,18,20-25,27-32,37,39-43H,5-12,14-17H2,1-4H3/t18?,20-,21+,22?,23?,24?,25?,27-,28+,29?,30-,31?,32+,33+,34+,35-,36-/m0/s1",-1.94,COC1C(O)C(COC2C(O)CC(O)OC2C)OC(OC2CCC3(C)C4CCC5(C)C(CCC5(O)C4CCC3(O)C2)C2=CC(=O)OC2)C1O,0,G1,B,None,None,Uncharged
B-2379,"InChI=1S/C12H16N2O2/c1-13(2)11(15)9-5-7-10(8-6-9)12(16)14(3)4/h5-8H,1-4H3",0.2656,CN(C)C(=O)C1=CC=C(C=C1)C(=O)N(C)C,0,G1,B,None,None,Uncharged
B-2380,"InChI=1S/C11H9N3O/c15-11(9-4-3-6-12-8-9)14-10-5-1-2-7-13-10/h1-8H,(H,13,14,15)",-2.9771,O=C(NC1=CC=CC=N1)C1=CC=CN=C1,0,G1,B,None,None,Uncharged
B-2381,"InChI=1S/C10H19ClNO5P/c1-6-12(7-2)10(13)9(11)8(3)17-18(14,15-4)16-5/h6-7H2,1-5H3/b9-8-",0.5233,CCN(CC)C(=O)C(Cl)=C(C)OP(=O)(OC)OC,0,G1,B,None,None,Uncharged
B-2382,"InChI=1S/C13H7Br2N3O6/c14-9-3-7(4-10(15)13(9)19)6-16-24-12-2-1-8(17(20)21)5-11(12)18(22)23/h1-6,16H",-6.6637,[O-]C1=C(Br)C=C(C=NOC2=CC=C(C=C2[N+]([O-])=O)[N+]([O-])=O)C=C1Br,0,G1,B,None,None,Negative
B-2383,"InChI=1S/C8H19O2PS2/c1-4-7-12-11(9,10-6-3)13-8-5-2/h4-8H2,1-3H3",-2.5094,CCCSP(=O)(OCC)SCCC,0,G1,B,None,None,Uncharged
B-2384,"InChI=1S/C5H4N4O/c10-5-8-3-1-6-2-7-4(3)9-5/h1-2H,(H2,6,7,8,9,10)",-1.5141,O=C1NC2=CN=CN=C2[N-]1,0,G1,B,None,None,Negative
B-2385,"InChI=1S/C3H6N2O3/c1-5(4-8)2-3(6)7/h2H2,1H3,(H,6,7)",0.9278,CN(CC([O-])=O)N=O,0,G1,B,None,None,Negative
B-2386,"InChI=1S/C12H13N5/c13-11(14)17-12(15)16-10-7-3-5-8-4-1-2-6-9(8)10/h1-7H,(H6,13,14,15,16,17)",-2.3151,NC(N)=[NH+]C(=[NH2+])NC1=CC=CC2=CC=CC=C12,0,G1,B,None,None,Positive
B-2387,"InChI=1S/C11H17O3PS/c1-3-13-15(12,14-4-2)16-10-11-8-6-5-7-9-11/h5-9H,3-4,10H2,1-2H3",-2.4155,CCOP(=O)(OCC)SCC1=CC=CC=C1,0,G1,B,None,None,Uncharged
B-2388,"InChI=1S/C23H14Cl2N6O8S2/c24-21-29-22(25)31-23(30-21)28-12-7-9(5-6-14(12)40(34,35)36)27-13-8-15(41(37,38)39)18(26)17-16(13)19(32)10-3-1-2-4-11(10)20(17)33/h1-8,27H,26H2,(H,34,35,36)(H,37,38,39)(H,28,29,30,31)",0.1956,NC1=C(C=C(NC2=CC=C(C(NC3=NC(Cl)=NC(Cl)=N3)=C2)S([O-])(=O)=O)C2=C1C(=O)C1=CC=CC=C1C2=O)S([O-])(=O)=O,0,G1,B,None,None,Negative
B-2390,"InChI=1S/C6H15N/c1-3-5-6-7-4-2/h7H,3-6H2,1-2H3",-0.4405,CCCC[NH2+]CC,0.007211059,G3,B,None,None,Positive
B-2391,"InChI=1S/C8H8N4O2/c1-11-6-5(9-3-4-10-6)7(13)12(2)8(11)14/h3-4H,1-2H3",-1.4598,CN1C(=O)N(C)C2=NC=CN=C2C1=O,0,G1,B,None,None,Uncharged
B-2392,"InChI=1S/C10H11NO3/c1-10(2)6-7-4-3-5-8(11(12)13)9(7)14-10/h3-5H,6H2,1-2H3",-3.2068,CC1(C)CC2=CC=CC(=C2O1)[N+]([O-])=O,0,G1,B,None,None,PureChargeSeparation
B-2394,"InChI=1S/C11H11Cl2NO3S/c1-6(15)14-10(11(16)17)5-18-7-2-3-8(12)9(13)4-7/h2-4,10H,5H2,1H3,(H,14,15)(H,16,17)/t10-/m0/s1",-2.8868,CC(=O)NC(CSC1=CC=C(Cl)C(Cl)=C1)C([O-])=O,0,G1,B,None,None,Negative
B-2395,"InChI=1S/C14H20N3O5PS/c1-5-19-14(18)11-9-17-12(15-10(11)4)8-13(16-17)22-23(24,20-6-2)21-7-3/h8-9H,5-7H2,1-4H3",-4.9489,CCOC(=O)C1=CN2N=C(OP(=S)(OCC)OCC)C=C2N=C1C,0,G1,B,None,None,Uncharged
B-2396,"InChI=1S/C5H4INO/c6-4-1-2-5(8)7-3-4/h1-3H,(H,7,8)",-1.7423,IC1=CNC(=O)C=C1,0,G1,B,None,None,Uncharged
B-2397,"InChI=1S/C18H41N7/c19-17(20)24-15-11-7-3-1-5-9-13-23-14-10-6-2-4-8-12-16-25-18(21)22/h23H,1-16H2,(H4,19,20,24)(H4,21,22,25)",0.3322,NC(=[NH2+])NCCCCCCCC[NH2+]CCCCCCCCNC(N)=[NH2+],0,G1,B,None,None,Positive
B-2398,"InChI=1S/C10H19N5O/c1-5-11-8-12-9(15(6-2)7-3)14-10(13-8)16-4/h5-7H2,1-4H3,(H,11,12,13,14)",-2.9987,CCNC1=NC(OC)=NC(=N1)N(CC)CC,0,G1,B,None,None,Uncharged