ID,InChI,Solubility,SMILEScurated,SD,Group,Dataset,Composition,Error,Charge
A-4498,"InChI=1S/C5H9NO/c1-6-4-2-3-5(6)7/h2-4H2,1H3",1.003781751,CN1CCCC1=O,0,G1,A,None,None,Uncharged
A-4499,"InChI=1S/C2H6N2O/c1-4-2(3)5/h1H3,(H3,3,4,5)",1.130281439,CNC(N)=O,0,G1,A,None,None,Uncharged
A-4500,"InChI=1S/C4H10O2S/c5-1-3-7-4-2-6/h5-6H,1-4H2",0.91296789,OCCSCCO,0,G1,A,None,None,Uncharged
A-4501,"InChI=1S/C6H8O7.H2O/c7-3(8)1-6(13,5(11)12)2-4(9)10;/h13H,1-2H2,(H,7,8)(H,9,10)(H,11,12);1H2",0.677495406,OC(CC([O-])=O)(CC([O-])=O)C([O-])=O,0,G1,A,None,None,Negative
A-4503,"InChI=1S/C4H10O3/c5-1-3-7-4-2-6/h5-6H,1-4H2",0.974198666,OCCOCCO,0,G1,A,None,None,Uncharged
A-4504,"InChI=1S/C9H14N2O3/c1-7(2)8(12)14-6-5-11-4-3-10-9(11)13/h1,3-6H2,2H3,(H,10,13)",0.702848146,CC(=C)C(=O)OCCN1CCNC1=O,1.5,G2,A,None,None,Uncharged
A-4505,"InChI=1S/C6H15NO.ClH/c1-6(2,5-8)7(3)4;/h8H,5H2,1-4H3;1H",0.813458956,C[NH+](C)C(C)(C)CO,0,G1,A,None,None,Positive
A-4507,"InChI=1S/C4H12N2O/c5-1-2-6-3-4-7/h6-7H,1-5H2",0.982328216,NCC[NH2+]CCO,0,G1,A,None,None,Positive
A-4508,"InChI=1S/C5H13NO2/c1-6(2-4-7)3-5-8/h7-8H,2-5H2,1H3",0.923854927,C[NH+](CCO)CCO,0,G1,A,None,None,Positive
A-4509,"InChI=1S/C6H14O4/c7-1-3-9-5-6-10-4-2-8/h7-8H,1-6H2",0.823405251,OCCOCCOCCO,0,G1,A,None,None,Uncharged
A-4510,"InChI=1S/C6H15NO3/c8-4-1-7(2-5-9)3-6-10/h8-10H,1-6H2",0.826260286,OCC[NH+](CCO)CCO,0,G1,A,None,None,Positive
A-4511,"InChI=1S/C2H5ClO/c3-1-2-4/h4H,1-2H2",1.094128597,OCCCl,0,G1,A,None,None,Uncharged
A-4512,"InChI=1S/C3H3NO2/c4-2-1-3(5)6/h1H2,(H,5,6)",1.07026441,[O-]C(=O)CC#N,0,G1,A,None,None,Negative
A-4513,"InChI=1S/C5H8O3/c1-2-5(7)8-4-3-6/h2,6H,1,3-4H2",0.935107933,OCCOC(=O)C=C,0,G1,A,None,None,Uncharged
A-4514,"InChI=1S/C3H5NO/c1-3(5)2-4/h3,5H,1H3",1.148258691,CC(O)C#N,0,G1,A,None,None,Uncharged
A-4515,"InChI=1S/C5H8O/c1-4-5(2,3)6/h1,6H,2-3H3",1.075111062,CC(C)(O)C#C,0,G1,A,None,None,Uncharged
A-4516,"InChI=1S/C4H11N/c1-4(2,3)5/h5H2,1-3H3",1.135850982,CC(C)(C)[NH3+],0,G1,A,None,None,Positive
A-4517,"InChI=1S/C4H10O/c1-4(2,3)5/h5H,1-3H3",1.130047012,CC(C)(C)O,0,G1,A,None,None,Uncharged
A-4518,"InChI=1S/C6H7N/c1-6-4-2-3-5-7-6/h2-5H,1H3",1.03091506,CC1=CC=CC=N1,0,G1,A,None,None,Uncharged
A-4519,"InChI=1S/C2H6OS/c3-1-2-4/h3-4H,1-2H2",1.107148825,OCCS,0,G1,A,None,None,Uncharged
A-4520,"InChI=1S/C5H13NO/c1-6(2)4-3-5-7/h7H,3-5H2,1-2H3",0.986467618,C[NH+](C)CCCO,0,G1,A,None,None,Positive
A-4521,"InChI=1S/C6H9N2.CH4O4S/c1-3-8-5-4-7(2)6-8;1-5-6(2,3)4/h3-6H,1H2,2H3;1H3,(H,2,3,4)/q+1;/p-1",0.657084083,COS([O-])(=O)=O.C[N+]1=CN(C=C)C=C1,0,G1,A,None,Cosolvent Buffer,Zwitterion
A-4522,"InChI=1S/C6H6O4S/c7-5-1-3-6(4-2-5)11(8,9)10/h1-4,7H,(H,8,9,10)",0.759009194,OC1=CC=C(C=C1)S([O-])(=O)=O,0.059957705,G3,A,None,None,Negative
A-4523,"InChI=1S/C7H12O3/c1-2-7(9)10-6-4-3-5-8/h2,8H,1,3-6H2",0.841125102,OCCCCOC(=O)C=C,0,G1,A,None,None,Uncharged
A-4524,InChI=1S/C4H9NO/c1-4(6)5(2)3/h1-3H3,1.059872163,CN(C)C(C)=O,0.025063918,G3,A,None,None,Uncharged
A-4525,"InChI=1S/C4H6N2O/c1-4(2-5)6-3-7/h3-4H,1H3,(H,6,7)",1.008308858,CC(NC=O)C#N,0,G1,A,None,None,Uncharged
A-4526,"InChI=1S/C4H11N/c1-3-5-4-2/h5H,3-4H2,1-2H3",1.135850982,CC[NH2+]CC,0,G1,A,None,None,Positive
A-4527,"InChI=1S/C3H7NO/c1-3(5)4-2/h1-2H3,(H,4,5)",1.13611233,CNC(C)=O,0,G1,A,None,None,Uncharged
A-4528,"InChI=1S/C2H5N/c1-2-3-1/h3H,1-2H2",1.365835212,C1C[NH2+]1,0,G1,A,None,None,Positive
A-4529,"InChI=1S/C4H10O2/c1-2-4(6)3-5/h4-6H,2-3H2,1H3",1.045169179,CCC(O)CO,0,G1,A,None,None,Uncharged
A-4530,"InChI=1S/C4H10O2/c1-3(5)4(2)6/h3-6H,1-2H3/t3-,4+",1.045169179,CC(O)C(C)O,0,G1,A,None,None,Uncharged
A-4531,"InChI=1S/C6H13N/c7-6-4-2-1-3-5-6/h6H,1-5,7H2",1.003589033,[NH3+]C1CCCCC1,0,G1,A,None,None,Positive
A-4532,"InChI=1S/C3H7N/c4-3-1-2-3/h3H,1-2,4H2",1.243394316,[NH3+]C1CC1,0,G1,A,None,None,Positive
A-4533,InChI=1S/C2Cl2O2/c3-1(5)2(4)6,0.896449406,ClC(=O)C(Cl)=O,0,G1,A,None,None,Uncharged
A-4534,"InChI=1S/CH3NO/c2-1-3/h1H,(H2,2,3)",1.346391976,NC=O,0,G1,A,None,None,Uncharged
A-4535,"InChI=1S/CH4O3S/c1-5(2,3)4/h1H3,(H,2,3,4)",1.017244979,CS([O-])(=O)=O,0,G1,A,None,None,Negative
A-4536,"InChI=1S/C4H8O4/c1-7-4(6)2-8-3-5/h5H,2-3H2,1H3",0.920442528,COC(=O)COCO,0,G1,A,None,None,Uncharged
A-4537,"InChI=1S/CH6N2/c1-3-2/h3H,2H2,1H3",1.336553508,C[NH2+]N,0,G1,A,None,None,Positive
A-4538,InChI=1S/C5H8O2/c6-5-3-1-2-4-7-5/h1-4H2,0.999492173,O=C1CCCCO1,0,G1,A,None,None,Uncharged
A-4539,"InChI=1S/C5H12O2/c1-2-3-5(7)4-6/h5-7H,2-4H2,1H3",0.982344896,CCCC(O)CO,0,G1,A,None,None,Uncharged
A-4540,"InChI=1S/C5H12O2/c6-4-2-1-3-5-7/h6-7H,1-5H2",0.982344896,OCCCCCO,0,G1,A,None,None,Uncharged
A-4544,"InChI=1S/C3H10N2/c1-3(5)2-4/h3H,2,4-5H2,1H3",1.130023576,CC([NH3+])C[NH3+],0,G1,A,None,None,Positive
A-4545,"InChI=1S/C3H6O2/c1-2-3(4)5/h2H2,1H3,(H,4,5)",1.130304889,CCC([O-])=O,0,G1,A,None,None,Negative
A-4546,"InChI=1S/C2HCl3O2.Na/c3-2(4,5)1(6)7;/h(H,6,7);/q;+1/p-1",0.731962893,[O-]C(=O)C(Cl)(Cl)Cl,0.039590623,G3,A,None,None,Negative
A-4547,"InChI=1S/C44H52N12O16S4.4Na/c1-25(57)21-55(22-26(2)58)43-51-39(45-31-11-15-35(16-12-31)73(61,62)63)49-41(53-43)47-33-9-7-29(37(19-33)75(67,68)69)5-6-30-8-10-34(20-38(30)76(70,71)72)48-42-50-40(46-32-13-17-36(18-14-32)74(64,65)66)52-44(54-42)56(23-27(3)59)24-28(4)60;;;;/h5-20,25-28,57-60H,21-24H2,1-4H3,(H,61,62,63)(H,64,65,66)(H,67,68,69)(H,70,71,72)(H2,45,47,49,51,53)(H2,46,48,50,52,54);;;;/q;4*+1/p-4/b6-5+;;;;",-0.086773993,CC(O)CN(CC(C)O)C1=NC(NC2=CC=C(C=CC3=CC=C(NC4=NC(=NC(NC5=CC=C(C=C5)S([O-])(=O)=O)=N4)N(CC(C)O)CC(C)O)C=C3S([O-])(=O)=O)C(=C2)S([O-])(=O)=O)=NC(NC2=CC=C(C=C2)S([O-])(=O)=O)=N1,0,G1,A,None,None,Negative
A-4548,"InChI=1S/C13H30N.HI/c1-5-8-11-14(4,12-9-6-2)13-10-7-3;/h5-13H2,1-4H3;1H/q+1;/p-1",0.485061956,CCCC[N+](C)(CCCC)CCCC,0,G1,A,None,None,Positive
A-4549,"InChI=1S/C2HF3O2/c3-2(4,5)1(6)7/h(H,6,7)",0.943011346,[O-]C(=O)C(F)(F)F,0,G1,A,None,None,Negative
A-4551,InChI=1S/C3H6O3S/c4-7(5)3-1-2-6-7/h1-3H2,-0.086875694,O=S1(=O)CCCO1,0,G1,A,None,None,Uncharged
A-4553,"InChI=1S/C14H14N2O6S2.2Na/c15-11-5-3-9(13(7-11)23(17,18)19)1-2-10-4-6-12(16)8-14(10)24(20,21)22;;/h1-8H,15-16H2,(H,17,18,19)(H,20,21,22);;/q;2*+1/p-2/b2-1+;;",-0.617390402,NC1=CC=C(C=CC2=CC=C(N)C=C2S([O-])(=O)=O)C(=C1)S([O-])(=O)=O,0,G1,A,None,None,Negative
A-4556,"InChI=1S/3C2H4O2.Y/c3*1-2(3)4;/h3*1H3,(H,3,4);/q;;;+3/p-3",-0.424943674,CC([O-])=O,0,G1,A,None,None,Negative
A-4557,"InChI=1S/C6H7NO3S/c7-5-2-1-3-6(4-5)11(8,9)10/h1-4H,7H2,(H,8,9,10)",-1.20510658,NC1=CC=CC(=C1)S([O-])(=O)=O,0.182817935,G5,A,None,None,Negative
A-4558,"InChI=1S/C20H24N2O2.H2O4S/c1-3-13-12-22-9-7-14(13)10-19(22)20(23)16-6-8-21-18-5-4-15(24-2)11-17(16)18;1-5(2,3)4/h3-6,8,11,13-14,19-20,23H,1,7,9-10,12H2,2H3;(H2,1,2,3,4)",-1.592406042,COC1=CC2=C(C=CN=C2C=C1)C(O)C1CC2CC[NH+]1CC2C=C,0,G1,A,None,Cosolvent Buffer,Positive
A-4559,"InChI=1S/C9H5BrClN3O2/c10-7-4-6(9(15)16)14(13-7)8-5(11)2-1-3-12-8/h1-4H,(H,15,16)",-1.448934642,[O-]C(=O)C1=CC(Br)=NN1C1=NC=CC=C1Cl,1.50258099,G4,A,None,None,Negative
A-4560,"InChI=1S/C6H14O/c1-5-6(2,3)7-4/h5H2,1-4H3",-0.979563677,CCC(C)(C)OC,0.009948373,G5,A,None,None,Uncharged
A-4567,"InChI=1S/C9H10O2/c1-7(10)9(11)8-5-3-2-4-6-8/h2-6,9,11H,1H3",-1.176603424,CC(=O)C(O)C1=CC=CC=C1,0,G1,A,None,None,Uncharged
A-4569,"InChI=1S/CH2O3.2H3N/c2-1(3)4;;/h(H2,2,3,4);2*1H3",-0.982660114,OC([O-])=O,0,G1,A,None,None,Negative
A-4570,"InChI=1S/C4H10O3/c1-5-4(6-2)7-3/h4H,1-3H3",-1.025801334,COC(OC)OC,0,G1,A,None,None,Uncharged
A-4571,"InChI=1S/C5H9Br3O/c6-1-5(2-7,3-8)4-9/h9H,1-4H2",-2.226109519,OCC(CBr)(CBr)CBr,0,G1,A,None,None,Uncharged
A-4572,"InChI=1S/C6H5Cl2NO3S/c7-3-1-5(9)6(2-4(3)8)13(10,11)12/h1-2H,9H2,(H,10,11,12)",-2.105210692,NC1=CC(Cl)=C(Cl)C=C1S([O-])(=O)=O,0.141583548,G5,A,None,None,Negative
A-4576,"InChI=1S/C9H8N2/c1-2-4-8(5-3-1)9-10-6-7-11-9/h1-7H,(H,10,11)",-1.88938304,N1C=CN=C1C1=CC=CC=C1,0,G1,A,None,None,Uncharged
A-4577,"InChI=1S/C4H6O6.Sr/c5-1(3(7)8)2(6)4(9)10;/h1-2,5-6H,(H,7,8)(H,9,10);",-2.1065272,OC(C(O)C([O-])=O)C([O-])=O,0,G1,A,None,None,Negative
A-4579,"InChI=1S/C8H10N2O3/c11-6-5-9-7-3-1-2-4-8(7)10(12)13/h1-4,9,11H,5-6H2",-1.993326586,OCCNC1=CC=CC=C1[N+]([O-])=O,0,G1,A,None,None,PureChargeSeparation
A-4580,"InChI=1S/C5H5NO3/c1-3-4(5(7)8)2-6-9-3/h2H,1H3,(H,7,8)/p-1",-1.05536111,CC1=C(C=NO1)C([O-])=O,0,G1,A,None,None,Negative
A-4582,"InChI=1S/C9H14O/c1-6-4-5-7(2)9(10)8(6)3/h5-6,8H,4H2,1-3H3",-1.885266962,CC1CC=C(C)C(=O)C1C,0,G1,A,None,None,Uncharged
A-4584,"InChI=1S/C8H16O2.Mn/c1-3-5-6-7(4-2)8(9)10;/h7H,3-6H2,1-2H3,(H,9,10);/q;+2",-2.043912167,CCCCC(CC)C([O-])=O,0.395025237,G3,A,None,None,Negative
A-4587,"InChI=1S/C11H24O3/c1-3-5-6-10(4-2)8-14-9-11(13)7-12/h10-13H,3-9H2,1-2H3",-2.055017119,CCCCC(CC)COCC(O)CO,0,G1,A,None,None,Uncharged
A-4588,"InChI=1S/C7H7ClN2O/c8-5-2-1-4(7(10)11)3-6(5)9/h1-3H,9H2,(H2,10,11)",-1.976703976,NC(=O)C1=CC=C(Cl)C(N)=C1,0,G1,A,None,None,Uncharged
A-4589,"InChI=1S/C21H16N2O5S/c1-28-16-11-15(23-29(26,27)12-7-3-2-4-8-12)17-18(19(16)22)21(25)14-10-6-5-9-13(14)20(17)24/h2-11,23H,22H2,1H3",-2.355850446,COC1=CC(NS(=O)(=O)C2=CC=CC=C2)=C2C(=O)C3=CC=CC=C3C(=O)C2=C1N,0,G1,A,None,None,Uncharged
A-4591,"InChI=1S/C15H19NO4/c1-2-11(4-12(3-1)17-9-15-10-20-15)16(5-13-7-18-13)6-14-8-19-14/h1-4,13-15H,5-10H2",-2.192561189,C(OC1=CC=CC(=C1)N(CC1CO1)CC1CO1)C1CO1,0,G1,A,None,None,Uncharged
A-4592,InChI=1S/C6H6/c1-2-4-6-5-3-1/h1-6H,-1.642308875,C1=CC=CC=C1,0.011868923,G3,A,None,None,Uncharged
A-4593,"InChI=1S/C24H50N4/c1-21(2)15-19(16-22(3,4)27-21)25-13-11-9-10-12-14-26-20-17-23(5,6)28-24(7,8)18-20/h19-20,25-28H,9-18H2,1-8H3",-2.350745656,CC1(C)CC(CC(C)(C)[NH2+]1)[NH2+]CCCCCC[NH2+]C1CC(C)(C)[NH2+]C(C)(C)C1,0,G1,A,None,None,Positive
A-4597,"InChI=1S/C14H26O2/c1-11(2)9-13(5,15)7-8-14(6,16)10-12(3)4/h11-12,15-16H,9-10H2,1-6H3",-2.124350764,CC(C)CC(C)(O)C#CC(C)(O)CC(C)C,0,G1,A,None,None,Uncharged
A-4598,"InChI=1S/C7H12O2/c1-3-5-6-9-7(8)4-2/h4H,2-3,5-6H2,1H3",-1.877340851,CCCCOC(=O)C=C,0.07826491,G5,A,None,None,Uncharged
A-4600,"InChI=1S/C12H18O3/c1-3-4-7-15-9-10-5-6-11(13)12(8-10)14-2/h5-6,8,13H,3-4,7,9H2,1-2H3",-2.094896806,CCCCOCC1=CC=C(O)C(OC)=C1,0.012483163,G3,A,None,None,Uncharged
A-4601,"InChI=1S/C6H5Cl2N.ClH/c7-4-1-2-5(8)6(9)3-4;/h1-3H,9H2;1H",-2.07500028,NC1=CC(Cl)=CC=C1Cl,0,G1,A,None,None,Uncharged
A-4602,"InChI=1S/2C15H30O5S.2Na/c2*1-3-4-5-6-7-8-9-10-11-12-15(16)20-14(2)13-21(17,18)19;;/h2*14H,3-13H2,1-2H3,(H,17,18,19);;/q;;2*+1/p-2/t2*14-;;/m10../s1",-2.618046836,CCCCCCCCCCCC(=O)OC(C)CS([O-])(=O)=O,0,G1,A,None,None,Negative
A-4604,"InChI=1S/C5H6N2O2S/c6-5-7-3(2-10-5)1-4(8)9/h2H,1H2,(H2,6,7)(H,8,9)",-1.981673118,NC1=NC(CC([O-])=O)=CS1,0,G1,A,None,None,Negative
A-4605,"InChI=1S/C18H25N3/c19-16-18(21-11-5-2-6-12-21)9-13-20(14-10-18)15-17-7-3-1-4-8-17/h1,3-4,7-8H,2,5-6,9-15H2/p+2",-2.245992211,N#CC1(CC[NH+](CC2=CC=CC=C2)CC1)N1CCCCC1,0,G1,A,None,None,Positive
A-4606,"InChI=1S/C10H15NO/c1-3-11(4-2)9-6-5-7-10(12)8-9/h5-8,12H,3-4H2,1-2H3",-2.011278797,CCN(CC)C1=CC=CC(O)=C1,0.015367308,G3,A,None,None,Uncharged
A-4607,"InChI=1S/C3H5N3O9/c7-4(8)13-1-3(15-6(11)12)2-14-5(9)10/h3H,1-2H2",-2.152068465,[O-][N+](=O)OCC(CO[N+]([O-])=O)O[N+]([O-])=O,0.042149818,G5,A,None,None,PureChargeSeparation
A-4610,"InChI=1S/C8H12O2/c1-10-8(9)6-7-4-2-3-5-7/h6H,2-5H2,1H3",-1.942572269,COC(=O)C=C1CCCC1,0.015466857,G3,A,None,None,Uncharged
A-4613,"InChI=1S/C13H13O3P/c1-17(14,15-12-8-4-2-5-9-12)16-13-10-6-3-7-11-13/h2-11H,1H3",-2.201708674,CP(=O)(OC1=CC=CC=C1)OC1=CC=CC=C1,0,G1,A,None,None,Uncharged
A-4616,InChI=1S/C6H5F/c7-6-4-2-1-3-5-6/h1-5H,-1.792409766,FC1=CC=CC=C1,0,G1,A,None,None,Uncharged
A-4617,"InChI=1S/C17H36O4S.Na/c1-2-3-4-5-6-7-8-9-10-11-12-13-14-15-16-17-21-22(18,19)20;/h2-17H2,1H3,(H,18,19,20);/q;+1/p-1",-2.366992667,CCCCCCCCCCCCCCCCCOS([O-])(=O)=O,0,G1,A,None,None,Negative
A-4620,"InChI=1S/C2H5F2N/c3-2(4)1-5/h2H,1,5H2",0.522530377,NCC(F)F,0.006340516,G3,A,None,None,Uncharged
A-4623,"InChI=1S/C16H22O11/c1-7(17)22-6-12-13(23-8(2)18)14(24-9(3)19)15(25-10(4)20)16(27-12)26-11(5)21/h12-16H,6H2,1-5H3",-2.415352911,CC(=O)OCC1OC(OC(C)=O)C(OC(C)=O)C(OC(C)=O)C1OC(C)=O,0.117323544,G3,A,None,None,Uncharged
A-4624,"InChI=1S/C11H16O/c1-11(2,9-12)8-10-6-4-3-5-7-10/h3-7,12H,8-9H2,1-2H3",-2.042313822,CC(C)(CO)CC1=CC=CC=C1,0,G1,A,None,None,Uncharged
A-4625,"InChI=1S/C8H8O/c1-2-4-7(5-3-1)8-6-9-8/h1-5,8H,6H2",-1.906541121,C1OC1C1=CC=CC=C1,0.151967493,G3,A,None,None,Uncharged
A-4627,"InChI=1S/C9H18O3/c1-8(2,3)7(10)11-12-9(4,5)6/h1-6H3",-2.067961594,CC(C)(C)OOC(=O)C(C)(C)C,0,G1,A,None,Unstable,Uncharged
A-4628,"InChI=1S/C8H20O4Si/c1-5-9-13(10-6-2,11-7-3)12-8-4/h5-8H2,1-4H3",-2.145565545,CCO[Si](OCC)(OCC)OCC,0,G1,A,None,None,Uncharged
A-4629,"InChI=1S/C11H16O/c1-3-4-5-6-10-9(2)7-8-11(10)12/h4-5H,3,6-8H2,1-2H3/b5-4-",-2.045238375,CCC=CCC1=C(C)CCC1=O,0,G1,A,None,None,Uncharged
A-4630,InChI=1S/C7H5ClO/c8-7-4-2-1-3-6(7)5-9/h1-5H,-1.980572221,ClC1=CC=CC=C1C=O,0.043977585,G3,A,None,None,Uncharged
A-4631,"InChI=1S/C10H14O/c1-3-8(2)9-6-4-5-7-10(9)11/h4-8,11H,3H2,1-2H3",-2.012377793,CCC(C)C1=CC=CC=C1O,0,G1,A,None,None,Uncharged
A-4634,"InChI=1S/C12H27NO2/c1-2-3-4-5-6-7-8-13(9-11-14)10-12-15/h14-15H,2-12H2,1H3",-2.191037603,CCCCCCCC[NH+](CCO)CCO,0,G1,A,None,None,Positive
A-4639,"InChI=1S/C8H5NO6/c10-7(11)4-1-5(8(12)13)3-6(2-4)9(14)15/h1-3H,(H,10,11)(H,12,13)",-2.178419855,[O-]C(=O)C1=CC(=CC(=C1)C([O-])=O)[N+]([O-])=O,0.099209928,G3,A,None,None,Negative
A-4641,"InChI=1S/C27H20N2O8S2.Na/c1-15-6-12-18(13-7-15)39(35,36)37-17-10-8-16(9-11-17)29-21-14-22(38(32,33)34)25(28)24-23(21)26(30)19-4-2-3-5-20(19)27(24)31;/h2-14,29H,28H2,1H3,(H,32,33,34);/q;+1/p-1",-2.622198475,CC1=CC=C(C=C1)S(=O)(=O)OC1=CC=C(NC2=CC(=C(N)C3=C2C(=O)C2=CC=CC=C2C3=O)S([O-])(=O)=O)C=C1,0,G1,A,None,None,Negative
A-4642,"InChI=1S/C10H13NO4S/c1-3-15-10(12)11-16(13,14)9-6-4-8(2)5-7-9/h4-7H,3H2,1-2H3,(H,11,12)",-2.243098748,CCOC(=O)[N-]S(=O)(=O)C1=CC=C(C)C=C1,0,G1,A,None,None,Negative
A-4644,"InChI=1S/2C9H18O2.Ca/c2*1-2-3-4-5-6-7-8-9(10)11;/h2*2-8H2,1H3,(H,10,11);/q;;+2/p-2",-2.412949573,CCCCCCCCC([O-])=O,0.518232851,G2,A,None,None,Negative
A-4645,"InChI=1S/C7H16O3/c1-4-8-7(9-5-2)10-6-3/h7H,4-6H2,1-3H3",-2.040520296,CCOC(OCC)OCC,0,G1,A,None,None,Uncharged
A-4647,InChI=1S/FH.Li/h1H;/q;+1/p-1,-1.290101588,[Li+].[F-],0.013850254,G5,A,None,None,Zwitterion
A-4648,"InChI=1S/C11H23NO/c1-4-5-6-7-8-9-10-11(13)12(2)3/h4-10H2,1-3H3",-2.144049559,CCCCCCCCC(=O)N(C)C,0,G1,A,None,None,Uncharged
A-4649,"InChI=1S/C16H12N2O2/c1-11-7-13(3-5-15(11)17-9-19)14-4-6-16(18-10-20)12(2)8-14/h3-8H,1-2H3",-2.308127519,CC1=CC(=CC=C1N=C=O)C1=CC=C(N=C=O)C(C)=C1,0,G1,A,None,None,Uncharged
A-4652,"InChI=1S/C10H10O/c1-9(11)7-8-10-5-3-2-4-6-10/h2-8H,1H3/b8-7+",-2.050971343,CC(=O)C=CC1=CC=CC=C1,0,G1,A,None,None,Uncharged
A-4654,"InChI=1S/C9H8N2O3/c12-6-3-1-5(2-4-6)7-8(13)11-9(14)10-7/h1-4,7,12H,(H2,10,11,13,14)",-2.17310492,OC1=CC=C(C=C1)C1NC(=O)NC1=O,0,G1,A,None,None,Uncharged
A-4655,"InChI=1S/C14H28O5S.Na/c1-2-3-4-5-6-7-8-9-10-11-14(15)19-12-13-20(16,17)18;/h2-13H2,1H3,(H,16,17,18);/q;+1/p-1",-2.408479245,CCCCCCCCCCCC(=O)OCCS([O-])(=O)=O,0,G1,A,None,None,Negative
A-4658,"InChI=1S/C8H11N3O3/c9-6-1-2-7(10-3-4-12)8(5-6)11(13)14/h1-2,5,10,12H,3-4,9H2",-2.191089976,NC1=CC=C(NCCO)C(=C1)[N+]([O-])=O,0,G1,A,None,None,PureChargeSeparation
A-4659,"InChI=1S/C12H18O/c1-10(13)9-12(2,3)11-7-5-4-6-8-11/h4-8,10,13H,9H2,1-3H3",-2.147286724,CC(O)CC(C)(C)C1=CC=CC=C1,0,G1,A,None,None,Uncharged
A-4661,"InChI=1S/C10H8O/c11-10-7-3-5-8-4-1-2-6-9(8)10/h1-7,11H",-2.061973923,OC1=CC=CC2=CC=CC=C12,0.086271637,G5,A,None,None,Uncharged
A-4662,"InChI=1S/C6H5Cl2N/c7-4-2-1-3-5(9)6(4)8/h1-3H,9H2",-2.130384701,NC1=CC=CC(Cl)=C1Cl,0,G1,A,None,None,Uncharged
A-4663,"InChI=1S/C7H8ClN/c1-5-2-3-6(8)4-7(5)9/h2-4H,9H2,1H3",-2.071885074,CC1=CC=C(Cl)C=C1N,0,G1,A,None,None,Uncharged
A-4664,"InChI=1S/C10H16N2O4/c1-7(13)11(8(2)14)5-6-12(9(3)15)10(4)16/h5-6H2,1-4H3",-2.279225735,CC(=O)N(CCN(C(C)=O)C(C)=O)C(C)=O,1.460409377,G2,A,None,None,Uncharged
A-4665,"InChI=1S/C13H24O3/c1-9(2)12-5-4-10(3)6-13(12)15-8-11(7-14)16-13/h9-12,14H,4-8H2,1-3H3",-2.279385535,CC(C)C1CCC(C)CC11OCC(CO)O1,0,G1,A,None,None,Uncharged
A-4666,"InChI=1S/C47H38N6O14S4.2Na/c1-47(2,29-11-15-33(16-12-29)66-70(62,63)35-7-3-5-31(23-35)50-52-45-39(48)19-9-27-21-37(68(56,57)58)25-41(54)43(27)45)30-13-17-34(18-14-30)67-71(64,65)36-8-4-6-32(24-36)51-53-46-40(49)20-10-28-22-38(69(59,60)61)26-42(55)44(28)46;;/h3-26,48-53H,1-2H3,(H,56,57,58)(H,59,60,61);;/q;2*+1",-2.956287317,CC(C)(C1=CC=C(OS(=O)(=O)C2=CC=CC(=C2)N=NC2=C3C([O-])=CC(=CC3=CC=C2N)S([O-])(=O)=O)C=C1)C1=CC=C(OS(=O)(=O)C2=CC=CC(=C2)N=NC2=C3C([O-])=CC(=CC3=CC=C2N)S([O-])(=O)=O)C=C1,0,G1,A,None,None,Negative
A-4667,"InChI=1S/C10H12O2/c1-2-12-10(11)8-9-6-4-3-5-7-9/h3-7H,2,8H2,1H3",-2.136202486,CCOC(=O)CC1=CC=CC=C1,0,G1,A,None,None,Uncharged
A-4668,InChI=1S/N2O/c1-2-3,-1.564399726,[O-][N+]#N,0,G1,A,None,None,PureChargeSeparation
A-4669,"InChI=1S/C24H23N3O8S2.Na/c1-12-9-14(10-18(13(12)2)36(31,32)26-7-8-28)27-17-11-19(37(33,34)35)22(25)21-20(17)23(29)15-5-3-4-6-16(15)24(21)30;/h3-6,9-11,26-28H,7-8,25H2,1-2H3,(H,33,34,35);/q;+1/p-1",-2.674843542,CC1=CC(NC2=CC(=C(N)C3=C2C(=O)C2=CC=CC=C2C3=O)S([O-])(=O)=O)=CC(=C1C)S(=O)(=O)NCCO,0,G1,A,None,None,Negative
A-4671,"InChI=1S/C8H11ClN2O/c1-2-3-4-7-10-6(5-12)8(9)11-7/h5H,2-4H2,1H3,(H,10,11)",-2.199127372,CCCCC1=NC(Cl)=C(N1)C=O,0,G1,A,None,None,Uncharged
A-4676,"InChI=1S/C8H14O2/c1-3-4-5-6-7-10-8(2)9/h4-5H,3,6-7H2,1-2H3/b5-4-",-2.111500803,CCC=CCCOC(C)=O,0.007756083,G3,A,None,None,Uncharged
A-4678,"InChI=1S/C11H14N2O2/c1-3-4-5-13-10(14)6-8(2)9(7-12)11(13)15/h6,15H,3-5H2,1-2H3",-2.272990744,CCCCN1C(=O)C=C(C)C(C#N)=C1O,0,G1,A,None,None,Uncharged
A-4679,"InChI=1S/C10H14O2/c1-3-4-8-5-6-9(11)10(7-8)12-2/h5-7,11H,3-4H2,1-2H3",-2.179290593,CCCC1=CC=C(O)C(OC)=C1,0,G1,A,None,None,Uncharged
A-4680,"InChI=1S/C4H6Cl2/c1-2-4(6)3-5/h2,4H,1,3H2",-2.055510379,ClCC(Cl)C=C,0.24466186,G5,A,None,None,Uncharged
A-4682,InChI=1S/Al.6FH.3Li/h;6*1H;;;/q+3;;;;;;;3*+1/p-6,-2.167567043,[Li+].[Li+].[Li+].[F-].[F-].[F-].[F-].[F-].[F-].[Al+3],0,G1,A,None,None,Zwitterion
A-4683,"InChI=1S/C12H23NO/c1-2-3-4-5-6-7-10-13-11-8-9-12(13)14/h2-11H2,1H3",-2.257749011,CCCCCCCCN1CCCC1=O,0.053242043,G5,A,None,None,Uncharged
A-4684,"InChI=1S/C8H17NO/c1-4-7(3)6-8(5-2)9-10/h7,10H,4-6H2,1-3H3/b9-8+",-2.130728127,CCC(C)CC(CC)=NO,0,G1,A,None,None,Uncharged
A-4685,"InChI=1S/C18H20NO.BrH/c1-19(2)17-18(13-14-20-17,15-9-5-3-6-10-15)16-11-7-4-8-12-16;/h3-12H,13-14H2,1-2H3;1H/q+1;/p-1",-2.526575134,C[N+](C)=C1OCCC1(C1=CC=CC=C1)C1=CC=CC=C1,0,G1,A,None,None,Positive
A-4688,"InChI=1S/C3H2BrF3/c1-2(4)3(5,6)7/h1H2",-2.238585126,FC(F)(F)C(Br)=C,0,G1,A,None,None,Uncharged
A-4689,"InChI=1S/C11H14O2/c1-9(8-12)7-10-3-5-11(13-2)6-4-10/h3-6,8-9H,7H2,1-2H3",-2.24666187,COC1=CC=C(CC(C)C=O)C=C1,0,G1,A,None,None,Uncharged
A-4690,"InChI=1S/C11H21NO/c1-7-9(13)12-11(5,6)8-10(2,3)4/h7H,1,8H2,2-6H3,(H,12,13)",-2.258829245,CC(C)(C)CC(C)(C)NC(=O)C=C,0,G1,A,None,None,Uncharged
A-4691,"InChI=1S/C2H2F4/c3-1-2(4,5)6/h1H2",-2.008727887,FCC(F)(F)F,0,G1,A,None,None,Uncharged
A-4695,"InChI=1S/C7H8ClNO3S/c1-4-2-6(9)7(3-5(4)8)13(10,11)12/h2-3H,9H2,1H3,(H,10,11,12)",-2.345697125,CC1=CC(N)=C(C=C1Cl)S([O-])(=O)=O,0,G1,A,None,None,Negative
A-4699,"InChI=1S/C12H14O3/c1-3-14-11(13)10-12(2,15-10)9-7-5-4-6-8-9/h4-8,10H,3H2,1-2H3",-2.314375006,CCOC(=O)C1OC1(C)C1=CC=CC=C1,0,G1,A,None,None,Uncharged
A-4700,InChI=1S/Mo.3O,-2.158172447,O=[Mo](=O)=O,0,G1,A,None,None,Uncharged
A-4701,"InChI=1S/C23H19N3O6S.Na/c1-2-18(27)26-13-7-5-6-12(10-13)25-16-11-17(33(30,31)32)21(24)20-19(16)22(28)14-8-3-4-9-15(14)23(20)29;/h3-11,25H,2,24H2,1H3,(H,26,27)(H,30,31,32);/q;+1/p-1",-2.687947003,CCC(=O)NC1=CC=CC(NC2=CC(=C(N)C3=C2C(=O)C2=CC=CC=C2C3=O)S([O-])(=O)=O)=C1,0,G1,A,None,None,Negative
A-4703,"InChI=1S/C7H5ClF3N/c8-4-1-2-6(12)5(3-4)7(9,10)11/h1-3H,12H2",-2.293481376,NC1=CC=C(Cl)C=C1C(F)(F)F,0,G1,A,None,None,Uncharged
A-4704,"InChI=1S/C6H19NSi2/c1-8(2,3)7-9(4,5)6/h7H,1-6H3",-2.210072377,C[Si](C)(C)[NH2+][Si](C)(C)C,0.622514906,G4,A,None,None,Positive
A-4707,"InChI=1S/C10H14O/c1-10(2,3)8-6-4-5-7-9(8)11/h4-7,11H,1-3H3",-2.189958914,CC(C)(C)C1=CC=CC=C1O,0.070820543,G3,A,None,None,Uncharged
A-4709,"InChI=1S/C10H20O/c1-5-9(2)7-6-8-10(3,4)11/h5,9,11H,1,6-8H2,2-4H3",-2.221207241,CC(CCCC(C)(C)O)C=C,0,G1,A,None,None,Uncharged