ID,InChI,Solubility,SMILEScurated,SD,Group,Dataset,Composition,Error,Charge
A-3943,"InChI=1S/C4H6O2/c5-3-1-2-4-6/h5-6H,3-4H2",1.536339003,OCC#CCO,0.449388338,G5,A,None,None,Uncharged
A-3944,"InChI=1S/C31H24ClN7O10S3.3Na/c1-2-39(19-9-4-3-5-10-19)31-35-29(32)34-30(36-31)33-23-16-20(50(41,42)43)14-18-15-24(51(44,45)46)26(27(40)25(18)23)38-37-22-13-12-17-8-6-7-11-21(17)28(22)52(47,48)49;;;/h3-16,37H,2H2,1H3,(H,41,42,43)(H,44,45,46)(H,47,48,49)(H,33,34,35,36);;;/q;3*+1/p-3/b38-26+;;;",-0.459235549,CCN(C1=CC=CC=C1)C1=NC(Cl)=NC(NC2=CC(=CC3=C2C(=O)C(=NNC2=C(C4=CC=CC=C4C=C2)S([O-])(=O)=O)C(=C3)S([O-])(=O)=O)S([O-])(=O)=O)=N1,0,G1,A,None,None,Negative
A-3949,"InChI=1S/C16H12N2O6S.Na/c19-14-3-1-2-11-10(14)5-6-12(16(11)21)17-18-13-8-9(25(22,23)24)4-7-15(13)20;/h1-8,17-18,20H,(H,22,23,24);/q;+1/p-1",-0.901196004,OC1=CC=C(C=C1NN=C1C=CC2=C(O)C=CC=C2C1=O)S([O-])(=O)=O,0,G1,A,None,None,Negative
A-3950,"InChI=1S/C9H13NO8/c11-6(12)2-1-5(9(17)18)10(3-7(13)14)4-8(15)16/h5H,1-4H2,(H,11,12)(H,13,14)(H,15,16)(H,17,18)",0.043603804,[O-]C(=O)CCC(N(CC([O-])=O)CC([O-])=O)C([O-])=O,0.079160517,G3,A,None,None,Negative
A-3954,"InChI=1S/C5H8O2/c1-4(2)7-5(3)6/h1H2,2-3H3",-0.527751378,CC(=C)OC(C)=O,0,G1,A,None,None,Uncharged
A-3955,"InChI=1S/C8H8O3/c9-7-5-3-1-2-4-6(5)8(10)11-7/h1-2,5-6H,3-4H2",-0.713921772,O=C1OC(=O)C2CC=CCC12,0,G1,A,None,None,Uncharged
A-3956,"InChI=1S/C5H8N2/c1-4-3-5(2)7-6-4/h3H,1-2H3,(H,6,7)",-0.520474498,CC1=CC(C)=NN1,0,G1,A,None,None,Uncharged
A-3961,"InChI=1S/C16H31NO3.C14H27NO3.2K/c1-2-3-4-5-6-7-8-9-10-11-12-13-15(18)17-14-16(19)20;1-2-3-4-5-6-7-8-9-10-11-13(16)15-12-14(17)18;;/h2-14H2,1H3,(H,17,18)(H,19,20);2-12H2,1H3,(H,15,16)(H,17,18);;/q;;2*+1/p-2",-0.3429717,[K+].[K+].CCCCCCCCCCCC(=O)NCC([O-])=O.CCCCCCCCCCCCCC(=O)NCC([O-])=O,0,G1,A,None,Multi-constituent Substances,Zwitterion
A-3964,"InChI=1S/C19H26O2/c1-2-19-10-9-15-14-6-4-13(20)11-12(14)3-5-16(15)17(19)7-8-18(19)21/h11,14-17H,2-10H2,1H3/t14-,15+,16+,17-,19?/m0/s1",-3.732719889,CCC12CCC3C(CCC4=CC(=O)CCC34)C1CCC2=O,0,G1,A,None,None,Uncharged
A-3965,"InChI=1S/C3H8NO6P/c4-2(3(5)6)1-10-11(7,8)9/h2H,1,4H2,(H,5,6)(H2,7,8,9)/t2-/m0/s1",-0.814940872,[NH3+]C(COP([O-])([O-])=O)C([O-])=O,0,G1,A,None,Non Valid pH,Zwitterion
A-3967,"InChI=1S/C18H30O3S.Na/c1-3-5-9-16(4-2)10-7-6-8-11-17-12-14-18(15-13-17)22(19,20)21;/h12-16H,3-11H2,1-2H3,(H,19,20,21);/q;+1/p-1",-0.096905651,CCCCC(CC)CCCCCC1=CC=C(C=C1)S([O-])(=O)=O,0,G1,A,None,None,Negative
A-3968,"InChI=1S/C40H44N12O22S6.6Na/c53-15-11-51(12-16-54)39-47-35(45-37(49-39)43-29-21-27(75(57,58)59)7-9-31(29)77(63,64)65)41-25-5-3-23(33(19-25)79(69,70)71)1-2-24-4-6-26(20-34(24)80(72,73)74)42-36-46-38(50-40(48-36)52(13-17-55)14-18-56)44-30-22-28(76(60,61)62)8-10-32(30)78(66,67)68;;;;;;/h1-10,19-22,53-56H,11-18H2,(H,57,58,59)(H,60,61,62)(H,63,64,65)(H,66,67,68)(H,69,70,71)(H,72,73,74)(H2,41,43,45,47,49)(H2,42,44,46,48,50);;;;;;/q;6*+1/p-6/b2-1+;;;;;;",-0.6924056,OCCN(CCO)C1=NC(NC2=CC=C(C=CC3=CC=C(NC4=NC(NC5=CC(=CC=C5S([O-])(=O)=O)S([O-])(=O)=O)=NC(=N4)N(CCO)CCO)C=C3S([O-])(=O)=O)C(=C2)S([O-])(=O)=O)=NC(NC2=CC(=CC=C2S([O-])(=O)=O)S([O-])(=O)=O)=N1,0,G1,A,None,Non Valid pH,Negative
A-3969,"InChI=1S/CH2O3.2Cs/c2-1(3)4;;/h(H2,2,3,4);;/q;2*+1/p-2",0.930068755,OC([O-])=O,0,G1,A,None,None,Negative
A-3975,"InChI=1S/C5H10O2/c1-5(2,3)4(6)7/h1-3H3,(H,6,7)",-0.563561886,CC(C)(C)C([O-])=O,0.054569057,G3,A,None,None,Negative
A-3976,"InChI=1S/C11H23NO2/c1-10(2)7-9(14)8-11(3,4)12(10)5-6-13/h9,13-14H,5-8H2,1-4H3",-0.859820553,CC1(C)CC(O)CC(C)(C)[NH+]1CCO,0,G1,A,None,Non Valid pH,Positive
A-3977,"InChI=1S/C7H13N/c1-4-7-8(5-2)6-3/h1H,5-7H2,2-3H3",-0.602013123,CC[NH+](CC)CC#C,0,G1,A,None,None,Positive
A-3978,"InChI=1S/C6H8O7.Co/c7-3(8)1-6(13,5(11)12)2-4(9)10;/h13H,1-2H2,(H,7,8)(H,9,10)(H,11,12);/q;+2/p-2",-0.954573972,OC(CC([O-])=O)(CC([O-])=O)C([O-])=O,0,G1,A,None,None,Negative
A-3979,"InChI=1S/2C6H8O7.3Co/c2*7-3(8)1-6(13,5(11)12)2-4(9)10;;;/h2*13H,1-2H2,(H,7,8)(H,9,10)(H,11,12);;;/q;;3*+2/p-6",-1.3025955,OC(CC([O-])=O)(CC([O-])=O)C([O-])=O,0,G1,A,None,None,Negative
A-3985,InChI=1S/Ba.2ClH.2H2O/h;2*1H;2*1H2/q+2;;;;/p-2,0.041892815,[Ba++],0.005578401,G3,A,None,None,Uncharged
A-3986,"InChI=1S/C3H6BrNO4/c4-3(1-6,2-7)5(8)9/h6-7H,1-2H2",0.127130857,OCC(Br)(CO)[N+]([O-])=O,0.029931276,G5,A,None,Cosolvent Buffer,PureChargeSeparation
A-3987,InChI=1S/2Cu.S/q2*+1;-2,-4.204573041,[Cu+],0,G1,A,None,None,Positive
A-3988,"InChI=1S/C4H6N2/c1-4-5-2-3-6-4/h2-3H,1H3,(H,5,6)",0.512136366,CC1=[NH+]C=CN1,0,G1,A,None,Non Valid pH,Positive
A-3989,"InChI=1S/3Na.H3O9P3/c;;;1-10(2)7-11(3,4)9-12(5,6)8-10/h;;;(H,1,2)(H,3,4)(H,5,6)/q3*+1;/p-3",-0.062309467,[O-]P1(=O)OP([O-])(=O)OP([O-])(=O)O1,0,G1,A,None,None,Negative
A-3991,InChI=1S/O2Se/c1-3-2,1.364774503,O=[Se]=O,0,G1,A,None,None,Uncharged
A-3992,InChI=1S/C5H10O2/c1-2-4-7-5-6-3-1/h1-5H2,0.41078966,C1CCOCOC1,0.028582753,G3,A,None,None,Uncharged
A-3994,"InChI=1S/C25H19ClN10O16S5.5Na/c26-23-30-24(28)32-25(31-23)29-10-1-3-14(54(41,42)43)12(7-10)33-36-21-17(57(50,51)52)6-9-5-16(56(47,48)49)20(19(27)18(9)22(21)37)35-34-13-8-11(53(38,39)40)2-4-15(13)55(44,45)46;;;;;/h1-8,33H,27H2,(H,38,39,40)(H,41,42,43)(H,44,45,46)(H,47,48,49)(H,50,51,52)(H3,28,29,30,31,32);;;;;/q;5*+1/p-5/b35-34?,36-21+;;;;;",-0.590800584,NC1=NC(Cl)=NC(NC2=CC=C(C(NN=C3C(=O)C4=C(N)C(N=NC5=CC(=CC=C5S([O-])(=O)=O)S([O-])(=O)=O)=C(C=C4C=C3S([O-])(=O)=O)S([O-])(=O)=O)=C2)S([O-])(=O)=O)=N1,0,G1,A,None,None,Negative
A-3996,"InChI=1S/C6H10O/c1-5(2)4-6(3)7/h4H,1-3H3",-0.560826234,CC(C)=CC(C)=O,0.014913117,G3,A,None,None,Uncharged
A-3997,"InChI=1S/C16H11ClN2O9S2.2Na/c17-8-1-2-11(20)10(5-8)18-19-15-13(30(26,27)28)4-7-3-9(29(23,24)25)6-12(21)14(7)16(15)22;;/h1-6,18,20-21H,(H,23,24,25)(H,26,27,28);;/q;2*+1/p-2/b19-15+;;",-1.289808658,OC1=CC=C(Cl)C=C1NN=C1C(=O)C2=C(O)C=C(C=C2C=C1S([O-])(=O)=O)S([O-])(=O)=O,0,G1,A,None,Non Valid pH,Negative
A-3998,"InChI=1S/C30H35N2O3.ClH/c1-6-31(7-2)21-15-17-25-27(19-21)35-28-20-22(32(8-3)9-4)16-18-26(28)29(25)23-13-11-12-14-24(23)30(33)34-10-5;/h11-20H,6-10H2,1-5H3;1H/q+1;/p-1",-1.280189706,CCOC(=O)C1=CC=CC=C1C1=C2C=CC(=CC2=[O+]C2=CC(=CC=C12)N(CC)CC)N(CC)CC,0,G1,A,None,Non Valid pH,Positive
A-3999,"InChI=1S/C6H5ClO/c7-5-1-3-6(8)4-2-5/h1-4,8H",-0.687659717,OC1=CC=C(Cl)C=C1,0.022773503,G5,A,None,None,Uncharged
A-4000,"InChI=1S/C4H5N/c1-4(2)3-5/h1H2,2H3",-0.406708517,CC(=C)C#N,0.024286983,G5,A,None,None,Uncharged
A-4001,"InChI=1S/C7H8O/c1-6-4-2-3-5-7(6)8/h2-5,8H,1H3",-0.619013017,CC1=CC=CC=C1O,0.00851667,G3,A,None,None,Uncharged
A-4004,"InChI=1S/2Li.H2O4S/c;;1-5(2,3)4/h;;(H2,1,2,3,4)/q2*+1;/p-2",0.392124281,[O-]S([O-])(=O)=O,0.058959133,G5,A,None,None,Negative
A-4006,"InChI=1S/C11H21NO5S/c1-10(2)11(13)17-8-7-12(3,4)6-5-9-18(14,15)16/h1,5-9H2,2-4H3",0.96273997,CC(=C)C(=O)OCC[N+](C)(C)CCCS([O-])(=O)=O,0,G1,A,None,None,Zwitterion
A-4009,"InChI=1S/C27H24N4O7S3.2Na/c1-17-3-12-23-24(25(17)41(36,37)38)39-27(30-23)19-6-8-21(9-7-19)29-26(32)20(16-28)15-18-4-10-22(11-5-18)31(2)13-14-40(33,34)35;;/h3-12,15H,13-14H2,1-2H3,(H,29,32)(H,33,34,35)(H,36,37,38);;/q;2*+1/p-2/b20-15+;;",-0.415949942,CN(CCS([O-])(=O)=O)C1=CC=C(C=C(C#N)C(=O)NC2=CC=C(C=C2)C2=NC3=CC=C(C)C(=C3S2)S([O-])(=O)=O)C=C1,0,G1,A,None,None,Negative
A-4017,"InChI=1S/C8H10O2/c9-6-7-10-8-4-2-1-3-5-8/h1-5,9H,6-7H2",-0.742461176,OCCOC1=CC=CC=C1,0.0190644,G5,A,None,None,Uncharged
A-4020,"InChI=1S/C2H2O4.K/c3-1(4)2(5)6;/h(H,3,4)(H,5,6);/q;+1/p-1",-0.70969048,[O-]C(=O)C([O-])=O,0,G1,A,None,None,Negative
A-4023,"InChI=1S/C20H19N3O11S3.2Na/c1-12(24)21-15-4-7-17-13(10-15)11-18(36(28,29)30)19(20(17)25)23-22-14-2-5-16(6-3-14)35(26,27)9-8-34-37(31,32)33;;/h2-7,10-11,22H,8-9H2,1H3,(H,21,24)(H,28,29,30)(H,31,32,33);;/q;2*+1/p-2/b23-19-;;",-0.39639349,CC(=O)NC1=CC=C2C(=O)C(=NNC3=CC=C(C=C3)S(=O)(=O)CCOS([O-])(=O)=O)C(=CC2=C1)S([O-])(=O)=O,0,G1,A,None,None,Negative
A-4024,"InChI=1S/C4H8N2O2/c1-3(7)5-6-4(2)8/h1-2H3,(H,5,7)(H,6,8)",0.328668176,CC(=O)NNC(C)=O,0.055787388,G3,A,None,None,Uncharged
A-4025,"InChI=1S/C11H20O2/c1-3-13-11(12)9(2)10-7-5-4-6-8-10/h9-10H,3-8H2,1-2H3",-3.327456749,CCOC(=O)C(C)C1CCCCC1,0,G1,A,None,None,Uncharged
A-4026,"InChI=1S/C5H7NO3.Ca/c7-4-2-1-3(6-4)5(8)9;/h3H,1-2H2,(H,6,7)(H,8,9);/q;+2/p-1",0.165147848,[O-]C(=O)C1CCC(=O)N1,0,G1,A,None,None,Negative
A-4028,"InChI=1S/C14H14O7S2.2Na/c1-9-3-11(7-13(5-9)22(15,16)17)21-12-4-10(2)6-14(8-12)23(18,19)20;;/h3-8H,1-2H3,(H,15,16,17)(H,18,19,20);;/q;2*+1/p-2",-0.220796195,CC1=CC(=CC(OC2=CC(=CC(C)=C2)S([O-])(=O)=O)=C1)S([O-])(=O)=O,0,G1,A,None,None,Negative
A-4029,"InChI=1S/C7H13NO2/c1-4-7(9)10-6-5-8(2)3/h4H,1,5-6H2,2-3H3",0.224310685,C[NH+](C)CCOC(=O)C=C,0.309894379,G3,A,None,None,Positive
A-4030,"InChI=1S/C4H6O3/c1-3-2-6-4(5)7-3/h3H,2H2,1H3",0.371232292,CC1COC(=O)O1,0.068586597,G3,A,None,None,Uncharged
A-4031,"InChI=1S/C8H10O2/c1-10-8-4-2-7(6-9)3-5-8/h2-5,9H,6H2,1H3",-0.744727146,COC1=CC=C(CO)C=C1,0.561791562,G4,A,None,None,Uncharged
A-4032,"InChI=1S/C6H7N.CH2O/c7-6-4-2-1-3-5-6;1-2/h1-5H,7H2;1H2",-2.004092218,NC1=CC=CC=C1,0.277831936,G5,A,None,Cosolvent Buffer,Uncharged
A-4034,"InChI=1S/C8H12O/c1-2-8(9)6-4-3-5-7-8/h1,9H,3-7H2",-0.704896063,OC1(CCCCC1)C#C,0,G1,A,None,Non Valid pH,Uncharged
A-4036,"InChI=1S/C9H4O5/c10-7(11)4-1-2-5-6(3-4)9(13)14-8(5)12/h1-3H,(H,10,11)",-0.896196315,[O-]C(=O)C1=CC=C2C(=O)OC(=O)C2=C1,0.092740888,G3,A,None,None,Negative
A-4039,InChI=1S/Cs,0.255764198,[Cs],0,G1,A,None,None,Uncharged
A-4040,"InChI=1S/C10H20O4/c1-9(2,5-11)7-14-8(13)10(3,4)6-12/h11-12H,5-7H2,1-4H3",0.068201817,CC(C)(CO)COC(=O)C(C)(C)CO,0.029676331,G3,A,None,None,Uncharged
A-4041,"InChI=1S/C23H16ClN7O14S4.Cu.4Na/c24-21-27-22(25)29-23(28-21)26-11-6-9(46(34,35)36)4-8-5-15(49(43,44)45)18(20(33)16(8)11)31-30-12-7-14(48(40,41)42)10-2-1-3-13(47(37,38)39)17(10)19(12)32;;;;;/h1-7,32-33H,(H,34,35,36)(H,37,38,39)(H,40,41,42)(H,43,44,45)(H3,25,26,27,28,29);;;;;/q;+2;4*+1/p-6",-0.590781442,NC1=NC(Cl)=NC(NC2=CC(=CC3=CC(=C(N=NC4=C([O-])C5=C(C=CC=C5C(=C4)S([O-])(=O)=O)S([O-])(=O)=O)C(O)=C23)S([O-])(=O)=O)S([O-])(=O)=O)=N1,0,G1,A,None,None,Negative
A-4043,"InChI=1S/CH6N4O/c2-4-1(6)5-3/h2-3H2,(H2,4,5,6)",0.414558554,NNC(=O)NN,0,G1,A,None,None,Uncharged
A-4044,"InChI=1S/C5H12O/c1-3-4-5(2)6/h5-6H,3-4H2,1-2H3",-0.254140825,CCCC(C)O,0.020879588,G3,A,None,None,Uncharged
A-4045,"InChI=1S/C8H7O4.Na/c1-4-3-6(10)7(5(2)9)8(11)12-4;/h3H,1-2H3;/q-1;+1",0.084561332,CC(=O)C1=C(O)C=C(C)OC1=O,0,G1,A,None,None,Uncharged
A-4047,"InChI=1S/C7H8O/c1-6-3-2-4-7(8)5-6/h2-5,8H,1H3",-0.662918503,CC1=CC=CC(O)=C1,0.007521002,G3,A,None,None,Uncharged
A-4049,"InChI=1S/CH4S/c1-2/h2H,1H3",-0.314879436,CS,0.0899176,G3,A,None,None,Uncharged
A-4052,"InChI=1S/C5H10O/c1-2-3-5-4-6-5/h5H,2-4H2,1H3",-0.57344678,CCCC1CO1,0,G1,A,None,None,Uncharged
A-4055,"InChI=1S/BF2H2O2.K/c2-1(3,4)5;/h4-5H;/q-1;+1",-0.724347118,O[B-](O)(F)F,0.178929966,G5,A,None,None,Negative
A-4056,"InChI=1S/C19H15F3N4O5S.Na/c1-9(27)24-11-3-5-15(13(7-11)19(20,21)22)25-26-18-14(23)4-2-10-6-12(32(29,30)31)8-16(28)17(10)18;/h2-8,23,25-26H,1H3,(H,24,27)(H,29,30,31);/q;+1/p-1",-1.328818198,CC(=O)NC1=CC=C(N=NC2=C3C([O-])=CC(=CC3=CC=C2N)S([O-])(=O)=O)C(=C1)C(F)(F)F,0,G1,A,mono-constituent,None,Negative
A-4061,"InChI=1S/C7H6O2.CH6N3/c8-7(9)6-4-2-1-3-5-6;2-1(3)4/h1-5H,(H,8,9);2-4H2/q;+1/p-1",0.005016256,N[C+](N)N.[O-]C(=O)C1=CC=CC=C1,0,G1,A,None,Cosolvent Buffer,Zwitterion
A-4063,InChI=1S/8BO3.2Na.4H2O/c8*2-1(3)4;;;;;;/h;;;;;;;;;;4*1H2/q8*-3;2*+1;;;;,-0.42018642,OB(O)O,0,G1,A,None,None,Uncharged
A-4064,"InChI=1S/C8H8O3.Na/c9-8(10)6-11-7-4-2-1-3-5-7;/h1-5H,6H2,(H,9,10);/q;+1/p-1",0.108595705,[O-]C(=O)COC1=CC=CC=C1,0,G1,A,mono-constituent,Non Valid pH,Negative
A-4066,"InChI=1S/C27H32N2O6S2.Na/c1-5-28(6-2)22-13-9-20(10-14-22)27(21-11-15-23(16-12-21)29(7-3)8-4)25-18-17-24(36(30,31)32)19-26(25)37(33,34)35;/h9-19H,5-8H2,1-4H3,(H-,30,31,32,33,34,35);/q;+1/p-1",-0.406689269,CCN(CC)C1=CC=C(C=C1)[C+](C1=CC=C(C=C1)N(CC)CC)C1=CC=C(C=C1S([O-])(=O)=O)S([O-])(=O)=O,0,G1,A,mono-constituent,None,Zwitterion
A-4070,"InChI=1S/C6H5ClO/c7-5-3-1-2-4-6(5)8/h1-4,8H",-0.753839202,OC1=CC=CC=C1Cl,0.145142687,G5,A,mono-constituent,None,Uncharged
A-4073,InChI=1S/C6H3BrCl2/c7-4-1-2-5(8)6(9)3-4/h1-3H,-1.01149355,ClC1=CC=C(Br)C=C1Cl,0,G1,A,mono-constituent,None,Uncharged
A-4074,"InChI=1S/C6H15N/c1-4-5-6-7(2)3/h4-6H2,1-3H3/p+1",-0.667032464,CCCC[NH+](C)C,0,G1,A,None,None,Positive
A-4075,"InChI=1S/C41H28N6O15S4.4Na/c48-34-20-33(46-44-26-11-12-28-22(15-26)4-2-5-35(28)63(51,52)53)40(66(60,61)62)30-14-10-25(18-32(30)34)43-41(50)42-24-9-13-29-23(16-24)17-37(65(57,58)59)38(39(29)49)47-45-27-8-7-21-3-1-6-36(31(21)19-27)64(54,55)56;;;;/h1-20,44-46H,(H,42,50)(H,51,52,53)(H,54,55,56)(H,57,58,59)(H,60,61,62);;;;/q;4*+1/p-4/b43-25?,47-38+;;;;",-0.687217137,[O-]C1=C2C=C(NC(=O)NC3=CC=C4C(=C3)C=C(C(=NNC3=CC5=C(C=CC=C5C=C3)S([O-])(=O)=O)C4=O)S([O-])(=O)=O)C=CC2=C(C(=C1)N=NC1=CC2=CC=CC(=C2C=C1)S([O-])(=O)=O)S([O-])(=O)=O,0,G1,A,None,None,Negative
A-4076,"InChI=1S/C9H17NO2.ClH/c10-7-9(6-8(11)12)4-2-1-3-5-9;/h1-7,10H2,(H,11,12);1H",0.019021146,[NH3+]CC1(CC([O-])=O)CCCCC1,0.013943346,G5,A,None,None,Zwitterion
A-4078,"InChI=1S/CH5N3.ClH/c2-1(3)4;/h(H5,2,3,4);1H",1.352285044,NC(N)=[NH2+],0,G1,A,None,None,Positive
A-4082,"InChI=1S/C10H14O6/c1-7(11)5-9(13)15-3-4-16-10(14)6-8(2)12/h3-6H2,1-2H3",-0.0337559,CC(=O)CC(=O)OCCOC(=O)CC(C)=O,0,G1,A,mono-constituent,None,Uncharged
A-4083,"InChI=1S/C6H7NO3S.Na/c7-5-1-3-6(4-2-5)11(8,9)10;/h1-4H,7H2,(H,8,9,10);/q;+1/p-1",0.037955415,NC1=CC=C(C=C1)S([O-])(=O)=O,0,G1,A,mono-constituent,None,Negative
A-4084,InChI=1S/C3H6O3/c1-4-2-6-3-5-1/h1-3H2,0.371717126,C1OCOCO1,0.045403707,G3,A,mono-constituent,None,Uncharged
A-4086,"InChI=1S/Mn.H3O4P/c;1-5(2,3)4/h;(H3,1,2,3,4)/q+2;/p-2",0.14554717,OP([O-])([O-])=O,0,G1,A,mono-constituent,Cosolvent Buffer,Negative
A-4087,"InChI=1S/H2O4S.H2O.Zn/c1-5(2,3)4;;/h(H2,1,2,3,4);1H2;/q;;+2/p-2",0.070295432,[O-]S([O-])(=O)=O,0,G1,A,mono-constituent,None,Negative
A-4088,InChI=1S/2Na.O3Si/c;;1-4(2)3/q2*+1;-2,0.235635255,O[Si]([O-])=O,0,G1,A,mono-constituent,None,Negative
A-4091,"InChI=1S/C14H11Cl2NO2.Na/c15-10-5-3-6-11(16)14(10)17-12-7-2-1-4-9(12)8-13(18)19;/h1-7,17H,8H2,(H,18,19);/q;+1/p-1",-1.174231848,[O-]C(=O)CC1=CC=CC=C1NC1=C(Cl)C=CC=C1Cl,0,G1,A,mono-constituent,None,Negative
A-4092,"InChI=1S/C33H34N10O10S2.2Na/c1-52-29-19-23(41-39-21-5-3-7-25(17-21)54(46,47)48)9-11-27(29)34-31-36-32(38-33(37-31)43(13-15-44)14-16-45)35-28-12-10-24(20-30(28)53-2)42-40-22-6-4-8-26(18-22)55(49,50)51;;/h3-12,17-20,44-45H,13-16H2,1-2H3,(H,46,47,48)(H,49,50,51)(H2,34,35,36,37,38);;/q;2*+1/p-2",-1.600815525,COC1=CC(=CC=C1NC1=NC(=NC(NC2=CC=C(C=C2OC)N=NC2=CC=CC(=C2)S([O-])(=O)=O)=N1)N(CCO)CCO)N=NC1=CC=CC(=C1)S([O-])(=O)=O,0,G1,A,mono-constituent,Non Valid pH,Negative
A-4093,"InChI=1S/C12H26O5/c1-3-11(5-13,6-14)9-17-10-12(4-2,7-15)8-16/h13-16H,3-10H2,1-2H3",-1.076302279,CCC(CO)(CO)COCC(CC)(CO)CO,0.04635114,G3,A,mono-constituent,None,Uncharged
A-4094,"InChI=1S/C4H8O2S/c1-6-4(5)2-3-7/h7H,2-3H2,1H3",-0.757587608,COC(=O)CCS,0,G1,A,mono-constituent,None,Uncharged
A-4096,"InChI=1S/C14H12N2O6S.Na/c1-9-2-3-10(8-13(9)16(18)19)14(17)15-11-4-6-12(7-5-11)23(20,21)22;/h2-8H,1H3,(H,15,17)(H,20,21,22);/q;+1/p-1",-1.232035998,CC1=CC=C(C=C1[N+]([O-])=O)C(=O)NC1=CC=C(C=C1)S([O-])(=O)=O,0,G1,A,mono-constituent,None,Negative
A-4097,"InChI=1S/C5H8N2O/c1-4-5(2-8)7-3-6-4/h3,8H,2H2,1H3,(H,6,7)",0.268333767,CC1=C(CO)NC=N1,0,G1,A,mono-constituent,None,Uncharged
A-4099,"InChI=1S/K.H3O4P/c;1-5(2,3)4/h;(H3,1,2,3,4)/q+1;/p-1",0.184256269,OP([O-])([O-])=O,0,G1,A,mono-constituent,None,Negative
A-4100,"InChI=1S/C3H4O/c1-2-3-4/h2-3H,1H2",0.569379255,C=CC=O,0.200310373,G3,A,mono-constituent,None,Uncharged
A-4102,"InChI=1S/Ce.2H2O4S.4H2O/c;2*1-5(2,3)4;;;;/h;2*(H2,1,2,3,4);4*1H2/q+3;;;;;;/p-3",-0.291816974,[O-]S([O-])(=O)=O,0,G1,A,None,None,Negative
A-4103,InChI=1S/7Mo.6H3N.24H2O/h;;;;;;;6*1H3;24*1H2,-0.766472623,[Mo],0,G1,A,None,None,Uncharged
A-4104,"InChI=1S/ClHO4.H3N/c2-1(3,4)5;/h(H,2,3,4,5);1H3",0.243662836,[O-][Cl](=O)(=O)=O,0,G1,A,mono-constituent,None,Negative
A-4105,"InChI=1S/C38H28Cl2N14O18S5.Cu.5Na/c39-33-45-35(41-18-7-4-8-19(11-18)73(58,59)60)49-36(46-33)42-24-15-29(77(70,71)72)25(16-28(24)76(67,68)69)43-37-47-34(40)48-38(50-37)44-26-13-21(75(64,65)66)14-27(30(26)55)52-54-31(17-5-2-1-3-6-17)53-51-23-10-9-20(74(61,62)63)12-22(23)32(56)57;;;;;;/h1-16H,(H12,41,42,43,44,45,46,47,48,49,50,51,52,53,54,55,56,57,58,59,60,61,62,63,64,65,66,67,68,69,70,71,72);;;;;;/q;+2;5*+1/p-7",-0.825411234,OC1=C(C=C(C=C1NNC(=NNC1=CC=C(C=C1C([O-])=O)S([O-])(=O)=O)C1=CC=CC=C1)S([O-])(=O)=O)N=C1N=C(Cl)[N-]C(N=C2C=C(C(C=C2S([O-])(=O)=O)=NC2=NC(Cl)=NC(NC3=CC=CC(=C3)S([O-])(=O)=O)=N2)S([O-])(=O)=O)=N1,0,G1,A,None,None,Negative
A-4106,"InChI=1S/C4H7NO/c1-3(2)4(5)6/h1H2,2H3,(H2,5,6)",0.37539119,CC(=C)C(N)=O,0.152675685,G3,A,mono-constituent,None,Uncharged
A-4107,"InChI=1S/C40H44N12O18S6.6Na/c1-5-51(6-2)39-47-35(45-37(49-39)43-29-21-27(71(53,54)55)15-17-31(29)73(59,60)61)41-25-13-11-23(33(19-25)75(65,66)67)9-10-24-12-14-26(20-34(24)76(68,69)70)42-36-46-38(50-40(48-36)52(7-3)8-4)44-30-22-28(72(56,57)58)16-18-32(30)74(62,63)64;;;;;;/h9-22H,5-8H2,1-4H3,(H,53,54,55)(H,56,57,58)(H,59,60,61)(H,62,63,64)(H,65,66,67)(H,68,69,70)(H2,41,43,45,47,49)(H2,42,44,46,48,50);;;;;;/q;6*+1/p-6/b10-9+;;;;;;",-0.812249023,CCN(CC)C1=NC(NC2=CC=C(C=CC3=CC=C(NC4=NC(NC5=CC(=CC=C5S([O-])(=O)=O)S([O-])(=O)=O)=NC(=N4)N(CC)CC)C=C3S([O-])(=O)=O)C(=C2)S([O-])(=O)=O)=NC(NC2=CC(=CC=C2S([O-])(=O)=O)S([O-])(=O)=O)=N1,0,G1,A,mono-constituent,Non Valid pH,Negative
A-4108,"InChI=1S/C10H15NO.ClH/c1-8(11-2)10(12)9-6-4-3-5-7-9;/h3-8,10-12H,1-2H3;1H/t8-,10-;/m0./s1",-0.003669443,C[NH2+]C(C)C(O)C1=CC=CC=C1,0,G1,A,None,None,Positive
A-4110,"InChI=1S/C6H5NO5S.Na/c8-7(9)5-2-1-3-6(4-5)13(10,11)12;/h1-4H,(H,10,11,12);/q;+1/p-1",-0.051455458,[O-][N+](=O)C1=CC=CC(=C1)S([O-])(=O)=O,0.783585663,G4,A,mono-constituent,None,Negative
A-4112,"InChI=1S/C9H12O2/c1-6-4-7(10)5-9(2,3)8(6)11/h4H,5H2,1-3H3",-0.87790415,CC1(C)CC(=O)CC(=C)C1=O,0,G1,A,mono-constituent,None,Uncharged
A-4114,"InChI=1S/C8H14O4/c9-3-7-11-5-1-2-6-12-8-4-10/h9-10H,3-8H2",0.758961822,OCCOCC#CCOCCO,0,G1,A,None,None,Uncharged
A-4115,"InChI=1S/C7H4N2O7/c10-6-4(7(11)12)1-3(8(13)14)2-5(6)9(15)16/h1-2,10H,(H,11,12)",-1.057125752,[O-]C(=O)C1=CC(=CC(=C1[O-])[N+]([O-])=O)[N+]([O-])=O,0,G1,A,mono-constituent,None,Negative
A-4116,"InChI=1S/C8H10O/c9-7-6-8-4-2-1-3-5-8/h1-5,9H,6-7H2",-0.785923914,OCCC1=CC=CC=C1,0.042284079,G5,A,mono-constituent,None,Uncharged
A-4119,"InChI=1S/C4H6O2/c1-3-6-4(2)5/h3H,1H2,2H3",-0.633922712,CC(=O)OC=C,0,G1,A,mono-constituent,None,Uncharged
A-4123,"InChI=1S/C7H5NO/c8-5-6-3-1-2-4-7(6)9/h1-4,9H",-0.774965627,OC1=CC=CC=C1C#N,0.095408242,G5,A,mono-constituent,None,Uncharged
A-4124,"InChI=1S/C14H8BrNO5S.Na/c15-8-5-9(22(19,20)21)12(16)11-10(8)13(17)6-3-1-2-4-7(6)14(11)18;/h1-5H,16H2,(H,19,20,21);/q;+1/p-1",-1.305537302,NC1=C2C(=O)C3=CC=CC=C3C(=O)C2=C(Br)C=C1S([O-])(=O)=O,0,G1,A,mono-constituent,None,Negative
A-4125,InChI=1S/C3H9Si/c1-4(2)3/h1-3H3,-0.563427685,C[Si](C)C,0.651603458,G2,A,None,None,Uncharged
A-4126,"InChI=1S/C8H4O3.C4H10O3/c9-7-5-3-1-2-4-6(5)8(10)11-7;5-1-3-7-4-2-6/h1-4H;5-6H,1-4H2",-1.405240463,O=C1OC(=O)C2=CC=CC=C12,0,G1,A,None,Cosolvent Buffer,Uncharged
A-4127,"InChI=1S/C12H8N4O7.C12H12N2O3S.C6H6N2O2.C6H7NO3S.Fe.2Na/c17-7-1-2-8(11(18)5-7)13-14-9-3-6(15(20)21)4-10(12(9)19)16(22)23;13-9-6-7-11(12(8-9)18(15,16)17)14-10-4-2-1-3-5-10;7-5-1-3-6(4-2-5)8(9)10;7-5-2-1-3-6(4-5)11(8,9)10;;;/h1-5,14,18-19H;1-8,14H,13H2,(H,15,16,17);1-4H,7H2;1-4H,7H2,(H,8,9,10);;;/q;;;;;2*+1/p-2/b13-8-;;;;;;",-2.526815423,[Na+].[Na+].[Fe].NC1=CC=C(C=C1)[N+]([O-])=O.NC1=CC=CC(=C1)S([O-])(=O)=O.NC1=CC=C(NC2=CC=CC=C2)C(=C1)S([O-])(=O)=O.[O-]C1=CC(=O)C=CC1=NNC1=CC(=CC(=C1[O-])[N+]([O-])=O)[N+]([O-])=O,0,G1,A,UVCB,Multi-constituent Substances,Zwitterion
A-4128,"InChI=1S/C7H6O2/c8-7(9)6-4-2-1-3-5-6/h1-5H,(H,8,9)",-1.619929844,[O-]C(=O)C1=CC=CC=C1,0.045222606,G5,A,mono-constituent,None,Negative
A-4130,"InChI=1S/C4H4N2O2/c7-3-1-4(8)6-2-5-3/h1-2H,(H2,5,6,7,8)",-1.587161122,[O-]C1=CC(=O)NC=N1,0.264027189,G5,A,mono-constituent,Non Valid pH,Negative
A-4132,"InChI=1S/C8H8O2/c9-7-10-6-8-4-2-1-3-5-8/h1-5,7H,6H2",-1.673119803,O=COCC1=CC=CC=C1,0,G1,A,mono-constituent,Non Valid pH,Uncharged