ID,InChI,Solubility,SMILEScurated,SD,Group,Dataset,Composition,Error,Charge
A-4711,"InChI=1S/C11H12O3/c1-8(6-12)4-9-2-3-10-11(5-9)14-7-13-10/h2-3,5-6,8H,4,7H2,1H3",-2.31343814,CC(CC1=CC=C2OCOC2=C1)C=O,0,G1,A,None,None,Uncharged
A-4712,"InChI=1S/C4H9Cl/c1-3-4(2)5/h4H,3H2,1-2H3",-2.001263871,CCC(C)Cl,0.030299967,G5,A,None,None,Uncharged
A-4713,"InChI=1S/2C2H4O2.Pd/c2*1-2(3)4;/h2*1H3,(H,3,4);/q;;+2/p-2",-2.3865009,CC([O-])=O,0,G1,A,None,None,Negative
A-4714,"InChI=1S/C10H18O/c1-8(2)6-10-7-9(3)4-5-11-10/h6,9-10H,4-5,7H2,1-3H3",-2.224445792,CC1CCOC(C1)C=C(C)C,0,G1,A,None,None,Uncharged
A-4715,"InChI=1S/C8H18O/c1-3-5-6-8(4-2)7-9/h8-9H,3-7H2,1-2H3",-2.160471866,CCCCC(CC)CO,0.06678641,G5,A,None,None,Uncharged
A-4716,"InChI=1S/C9H16O/c1-4-8(2)6-5-7-9(3)10/h6H,4-5,7H2,1-3H3/b8-6+",-2.192586036,CCC(C)=CCCC(C)=O,0.106191058,G3,A,None,None,Uncharged
A-4717,"InChI=1S/C19H16N4O6S.Na/c1-12-10-15(24)6-8-17(12)22-21-14-4-2-13(3-5-14)20-18-9-7-16(30(27,28)29)11-19(18)23(25)26;/h2-11,20-21H,1H3,(H,27,28,29);/q;+1/p-1/b22-17+;",-2.699363586,CC1=CC(O)=CC=C1N=NC1=CC=C(NC2=CC=C(C=C2[N+]([O-])=O)S([O-])(=O)=O)C=C1,0,G1,A,None,None,Negative
A-4718,"InChI=1S/C6H4O5/c7-5(8)3-1-2-4(11-3)6(9)10/h1-2H,(H,7,8)(H,9,10)",-2.239623736,[O-]C(=O)C1=CC=C(O1)C([O-])=O,0,G1,A,None,None,Negative
A-4720,"InChI=1S/C7H4Cl2O2/c8-5-3-1-2-4(6(5)9)7(10)11/h1-3H,(H,10,11)",-2.331672919,[O-]C(=O)C1=CC=CC(Cl)=C1Cl,0,G1,A,None,None,Negative
A-4722,"InChI=1S/C7H8ClNO3S/c1-4-2-7(13(10,11)12)6(9)3-5(4)8/h2-3H,9H2,1H3,(H,10,11,12)",-2.406177873,CC1=CC(=C(N)C=C1Cl)S([O-])(=O)=O,0,G1,A,None,None,Negative
A-4724,"InChI=1S/C10H10ClNO2/c1-7(13)6-10(14)12-9-5-3-2-4-8(9)11/h2-5H,6H2,1H3,(H,12,14)",-2.406536077,CC(=O)CC(=O)NC1=CC=CC=C1Cl,0.015155957,G3,A,None,None,Uncharged
A-4725,"InChI=1S/C8H7BrO2/c1-6(10)11-8-4-2-7(9)3-5-8/h2-5H,1H3",-2.416604157,CC(=O)OC1=CC=C(Br)C=C1,0,G1,A,None,None,Uncharged
A-4730,"InChI=1S/C12H26O2.C12H26O.C8H18O2.C8H18O/c1-4-7-12(10(5-2)8-13)11(6-3)9-14;1-4-7-8-11(5-2)9-12(6-3)10-13;1-3-5-8(10)7(4-2)6-9;1-3-5-6-8(4-2)7-9/h10-14H,4-9H2,1-3H3;11-13H,4-10H2,1-3H3;7-10H,3-6H2,1-2H3;8-9H,3-7H2,1-2H3",-2.925284669,CCCC(C(CC)CO)C(CC)CO,0,G1,A,None,Multi-constituent Substances,Uncharged
A-4732,"InChI=1S/C10H10N2/c11-8-5-1-3-7-4-2-6-9(12)10(7)8/h1-6H,11-12H2",-2.307122857,NC1=CC=CC2=CC=CC(N)=C12,0.021518946,G5,A,None,None,Uncharged
A-4736,"InChI=1S/C4H6/c1-3-4-2/h3-4H,1-2H2",-1.8668457,C=CC=C,0,G1,A,None,None,Uncharged
A-4737,"InChI=1S/C8H3F3N2O2/c9-8(10,11)6-2-1-5(4-12)7(3-6)13(14)15/h1-3H",-2.470773563,[O-][N+](=O)C1=CC(=CC=C1C#N)C(F)(F)F,0,G1,A,None,None,PureChargeSeparation
A-4740,"InChI=1S/C6H3N3O8.Pb/c10-5-2(7(12)13)1-3(8(14)15)6(11)4(5)9(16)17;/h1,10-11H;/q;+2/p-2",-2.808391369,[O-][N+]([O-])=C1C=C(C(=O)C(C1=O)=[N+]([O-])[O-])[N+]([O-])=O,0.073064018,G3,A,None,None,Negative
A-4741,"InChI=1S/C8H14O/c1-3-5-6-8(4-2)7-9/h6-7H,3-5H2,1-2H3/b8-6+",-2.255957874,CCCC=C(CC)C=O,0.038600212,G3,A,None,None,Uncharged
A-4742,"InChI=1S/C8H16O/c1-3-5-6-8(4-2)7-9/h7-8H,3-6H2,1-2H3",-2.262840797,CCCCC(CC)C=O,0.152793786,G5,A,None,None,Uncharged
A-4743,"InChI=1S/C9H18O2/c1-7(5-8(10)11)6-9(2,3)4/h7H,5-6H2,1-4H3,(H,10,11)",-2.354220979,CC(CC([O-])=O)CC(C)(C)C,0,G1,A,None,None,Negative
A-4744,"InChI=1S/C11H11N3O3/c1-6(15)4-10(16)12-7-2-3-8-9(5-7)14-11(17)13-8/h2-3,5H,4H2,1H3,(H,12,16)(H2,13,14,17)",-2.522680786,CC(=O)CC(=O)NC1=CC=C2NC(=O)NC2=C1,0,G1,A,None,None,Uncharged
A-4746,"InChI=1S/C7H7N3O/c8-4-1-2-5-6(3-4)10-7(11)9-5/h1-3H,8H2,(H2,9,10,11)",-2.334782902,NC1=CC=C2NC(=O)NC2=C1,0,G1,A,None,None,Uncharged
A-4750,"InChI=1S/C11H22O2/c1-5-6-7-10-12-9(2)8-11(3,4)13-10/h9-10H,5-8H2,1-4H3",-2.45329736,CCCCC1OC(C)CC(C)(C)O1,0,G1,A,None,None,Uncharged
A-4751,"InChI=1S/C10H12O/c1-8(2)10(11)9-6-4-3-5-7-9/h3-8H,1-2H3",-2.35661526,CC(C)C(=O)C1=CC=CC=C1,0,G1,A,None,None,Uncharged
A-4754,"InChI=1S/C7H6N2O5/c8-5-2-3(9(13)14)1-4(6(5)10)7(11)12/h1-2,10H,8H2,(H,11,12)",-2.490779033,NC1=CC(=CC(C([O-])=O)=C1O)[N+]([O-])=O,0,G1,A,None,None,Negative
A-4755,InChI=1S/2ClH.2H3N.Pd/h2*1H;2*1H3;/q;;;;+2/p-2,-2.52573978,[Cl-].[Cl-].[Pd++],0,G1,A,None,None,Negative
A-4756,"InChI=1S/C11H13F13O3Si/c1-25-28(26-2,27-3)5-4-6(12,13)7(14,15)8(16,17)9(18,19)10(20,21)11(22,23)24/h4-5H2,1-3H3",-2.892356214,CO[Si](CCC(F)(F)C(F)(F)C(F)(F)C(F)(F)C(F)(F)C(F)(F)F)(OC)OC,0,G1,A,None,None,Uncharged
A-4757,"InChI=1S/C9H14N2O3S/c1-6-4-7(10)8(14-3)5-9(6)15(12,13)11-2/h4-5,11H,10H2,1-3H3",-2.576943359,CNS(=O)(=O)C1=CC(OC)=C(N)C=C1C,0,G1,A,None,None,Uncharged
A-4758,"InChI=1S/C10H14O/c1-10(2,3)8-4-6-9(11)7-5-8/h4-7,11H,1-3H3",-2.391400814,CC(C)(C)C1=CC=C(O)C=C1,0.010949593,G3,A,None,None,Uncharged
A-4762,"InChI=1S/C4H5Cl3/c1-3(6)4(7)2-5/h4H,1-2H2",-2.424454207,ClCC(Cl)C(Cl)=C,0,G1,A,None,None,Uncharged
A-4764,"InChI=1S/C7H14O2/c1-4-6(3)7(8)9-5-2/h6H,4-5H2,1-3H3",-2.336416369,CCOC(=O)C(C)CC,0,G1,A,None,None,Uncharged
A-4767,"InChI=1S/C10H18O/c1-10(2,3)8-4-6-9(11)7-5-8/h8H,4-7H2,1-3H3",-2.417381608,CC(C)(C)C1CCC(=O)CC1,0,G1,A,None,None,Uncharged
A-4768,"InChI=1S/C10H18O/c1-9(2)7-4-5-10(9,3)8(11)6-7/h7-8,11H,4-6H2,1-3H3/t7-,8-,10-/m1/s1",-2.420558395,CC1(C)C2CCC1(C)C(O)C2,0,G1,A,None,None,Uncharged
A-4769,"InChI=1S/C6H5Cl2N/c7-5-2-1-4(9)3-6(5)8/h1-3H,9H2",-2.446137954,NC1=CC=C(Cl)C(Cl)=C1,0.403660515,G5,A,None,None,Uncharged
A-4770,"InChI=1S/Mg.H3O4P/c;1-5(2,3)4/h;(H3,1,2,3,4)/q+2;/p-2",0.264188022,OP([O-])([O-])=O,0,G1,A,None,None,Negative
A-4771,"InChI=1S/C22H42O8/c1-3-5-11-25-13-15-27-17-19-29-21(23)9-7-8-10-22(24)30-20-18-28-16-14-26-12-6-4-2/h3-20H2,1-2H3",-2.882184886,CCCCOCCOCCOC(=O)CCCCC(=O)OCCOCCOCCCC,0,G1,A,None,None,Uncharged
A-4775,"InChI=1S/C8H10O/c1-7-3-5-8(9-2)6-4-7/h3-6H,1-2H3",-2.339542101,COC1=CC=C(C)C=C1,0,G1,A,None,None,Uncharged
A-4776,"InChI=1S/C17H22N2O/c1-2-7-16-15(5-1)6-3-8-17(16)18-9-4-10-19-11-13-20-14-12-19/h1-3,5-8,18H,4,9-14H2",-2.702803349,C(CNC1=CC=CC2=CC=CC=C12)C[NH+]1CCOCC1,0,G1,A,None,None,Positive
A-4778,"InChI=1S/C12H10O/c13-12-9-5-4-8-11(12)10-6-2-1-3-7-10/h1-9,13H",-2.506711754,OC1=CC=CC=C1C1=CC=CC=C1,0.060405877,G3,A,None,None,Uncharged
A-4779,"InChI=1S/C11H16O/c1-4-11(2,3)9-7-5-6-8-10(9)12/h5-8,12H,4H2,1-3H3",-2.49122422,CCC(C)(C)C1=CC=CC=C1O,0,G1,A,None,None,Uncharged
A-4780,"InChI=1S/C12H30O6Si2/c1-13-19(14-2,15-3)11-9-7-8-10-12-20(16-4,17-5)18-6/h7-12H2,1-6H3",-2.792947984,CO[Si](CCCCCC[Si](OC)(OC)OC)(OC)OC,0,G1,A,None,None,Uncharged
A-4782,"InChI=1S/C11H21N/c1-7-8(6-12)4-9-5-10(7)11(9,2)3/h7-10H,4-6,12H2,1-3H3/t7-,8-,9+,10+/m1/s1",-2.515915381,CC1C2CC(CC1C[NH3+])C2(C)C,0.685805535,G2,A,None,None,Positive
A-4785,"InChI=1S/C9H16O/c1-8(2)5-4-6-9(3)7-10/h5,7,9H,4,6H2,1-3H3",-2.447858542,CC(CCC=C(C)C)C=O,0,G1,A,None,None,Uncharged
A-4786,"InChI=1S/C10H16N2O8/c13-7(14)3-11(4-8(15)16)1-2-12(5-9(17)18)6-10(19)20/h1-6H2,(H,13,14)(H,15,16)(H,17,18)(H,19,20)",-2.766775599,[O-]C(=O)CN(CCN(CC([O-])=O)CC([O-])=O)CC([O-])=O,0.185416977,G5,A,None,None,Negative
A-4787,"InChI=1S/C20H24N2O2/c1-3-13-12-22-9-7-14(13)10-19(22)20(23)16-6-8-21-18-5-4-15(24-2)11-17(16)18/h3-6,8,11,13-14,19-20,23H,1,7,9-10,12H2,2H3/t13-,14?,19-,20+/m0/s1",-2.81214297,COC1=CC2=C(C=CN=C2C=C1)C(O)C1CC2CC[NH+]1CC2C=C,0,G1,A,None,None,Positive
A-4788,"InChI=1S/C20H24N2O2/c1-3-13-12-22-9-7-14(13)10-19(22)20(23)16-6-8-21-18-5-4-15(24-2)11-17(16)18/h3-6,8,11,13-14,19-20,23H,1,7,9-10,12H2,2H3/t13-,14-,19+,20-/m0/s1",-2.81214297,COC1=CC2=C(C=CN=C2C=C1)C(O)C1CC2CC[NH+]1CC2C=C,0.276420984,G3,A,None,None,Positive
A-4790,"InChI=1S/C15H29NO3/c1-3-4-5-6-7-8-9-10-11-12-14(17)16(2)13-15(18)19/h3-13H2,1-2H3,(H,18,19)",-2.734641439,CCCCCCCCCCCC(=O)N(C)CC([O-])=O,0,G1,A,None,None,Negative
A-4792,"InChI=1S/C7H13ClO2/c1-5(2)4-10-7(9)6(3)8/h5-6H,4H2,1-3H3/t6-/m0/s1",-2.51754425,CC(C)COC(=O)C(C)Cl,0.027758664,G3,A,None,None,Uncharged
A-4795,"InChI=1S/C10H10O/c1-9(8-11)7-10-5-3-2-4-6-10/h2-8H,1H3/b9-7-",-2.474718615,CC(C=O)=CC1=CC=CC=C1,0,G1,A,None,None,Uncharged
A-4798,"InChI=1S/C10H16O/c1-8(2)6-10-7-9(3)4-5-11-10/h6,10H,3-5,7H2,1-2H3",-2.510422359,CC(C)=CC1CC(=C)CCO1,0,G1,A,None,None,Uncharged
A-4801,"InChI=1S/C8H16O2/c1-4-6-7(3)8(9)10-5-2/h7H,4-6H2,1-3H3",-2.489690542,CCCC(C)C(=O)OCC,0,G1,A,None,None,Uncharged
A-4802,"InChI=1S/C8H14O2/c1-6(2)7(9)10-8(3,4)5/h1H2,2-5H3",-2.486375508,CC(=C)C(=O)OC(C)(C)C,0.188628141,G5,A,None,None,Uncharged
A-4803,"InChI=1S/C6H12O/c1-3-5-6-7-4-2/h4H,2-3,5-6H2,1H3",-2.33794082,CCCCOC=C,0.409961275,G5,A,None,None,Uncharged
A-4807,"InChI=1S/C10H15NO2S/c1-2-3-9-11-14(12,13)10-7-5-4-6-8-10/h4-8,11H,2-3,9H2,1H3",-2.675782414,CCCCNS(=O)(=O)C1=CC=CC=C1,0.544510027,G2,A,None,None,Uncharged
A-4808,"InChI=1S/C10H18O/c1-5-10(4)8-6-7-9(2,3)11-10/h5H,1,6-8H2,2-4H3",-2.535987278,CC1(C)CCCC(C)(O1)C=C,0,G1,A,None,None,Uncharged
A-4810,"InChI=1S/C12H13NO2/c1-7-12(2,3)9-6-8(11(14)15)4-5-10(9)13-7/h4-6H,1-3H3,(H,14,15)",-2.662589054,CC1=NC2=CC=C(C=C2C1(C)C)C([O-])=O,0,G1,A,None,None,Negative
A-4812,"InChI=1S/C9H16O2/c1-7-5-3-4-6-9(7)11-8(2)10/h7,9H,3-6H2,1-2H3",-2.550297857,CC1CCCCC1OC(C)=O,0,G1,A,None,None,Uncharged
A-4815,InChI=1S/C6H4ClNO2/c7-5-3-1-2-4-6(5)8(9)10/h1-4H,-2.563966491,[O-][N+](=O)C1=CC=CC=C1Cl,0.151386245,G5,A,None,None,PureChargeSeparation
A-4816,"InChI=1S/C11H22O3/c1-4-6-7-10(5-2)8-14-11(13)9(3)12/h9-10,12H,4-8H2,1-3H3",-2.67352571,CCCCC(CC)COC(=O)C(C)O,0,G1,A,None,None,Uncharged
A-4817,InChI=1S/C6H5Br/c7-6-4-2-1-3-5-6/h1-5H,-2.568561457,BrC1=CC=CC=C1,0.031438492,G5,A,None,None,Uncharged
A-4819,InChI=1S/Al.6FH.3Na/h;6*1H;;;/q+3;;;;;;;3*+1/p-6,-2.698845903,[F-].[F-].[F-].[F-].[F-].[F-].[Na+].[Na+].[Na+].[Al+3],0.183503825,G5,A,None,None,Zwitterion
A-4821,"InChI=1S/C7H7NO2/c1-6-2-4-7(5-3-6)8(9)10/h2-5H,1H3",-2.514943789,CC1=CC=C(C=C1)[N+]([O-])=O,0.046246767,G5,A,None,None,PureChargeSeparation
A-4822,"InChI=1S/C12H14O3/c1-4-5-10-6-7-11(15-9(2)13)12(8-10)14-3/h4,6-8H,1,5H2,2-3H3",-2.701591149,COC1=CC(CC=C)=CC=C1OC(C)=O,0,G1,A,None,None,Uncharged
A-4823,"InChI=1S/C5H10/c1-4-5(2)3/h4H,1-3H3",-2.233150945,CC=C(C)C,0.163613274,G3,A,None,None,Uncharged
A-4824,"InChI=1S/C13H13Cl2N3O3/c14-9-1-2-11(12(15)3-9)13(6-18-8-16-7-17-18)20-5-10(4-19)21-13/h1-3,7-8,10,19H,4-6H2/t10-,13-/m1/s1",-2.905955068,OCC1COC(CN2C=NC=N2)(O1)C1=CC=C(Cl)C=C1Cl,0,G1,A,None,None,Uncharged
A-4825,"InChI=1S/C8H14O2/c1-4-5-6-10-8(9)7(2)3/h2,4-6H2,1,3H3",-2.544367455,CCCCOC(=O)C(C)=C,0.172579229,G5,A,None,None,Uncharged
A-4826,"InChI=1S/C28H36O15/c1-11-21(34)23(36)25(38)27(40-11)43-26-24(37)22(35)19(10-29)42-28(26)41-13-8-16(32)20(17(33)9-13)14(30)5-3-12-4-6-18(39-2)15(31)7-12/h4,6-9,11,19,21-29,31-38H,3,5,10H2,1-2H3/t11-,19+,21-,22+,23+,24-,25+,26+,27-,28+/m0/s1",-3.185103531,COC1=CC=C(CCC(=O)C2=C(O)C=C(OC3OC(CO)C(O)C(O)C3OC3OC(C)C(O)C(O)C3O)C=C2O)C=C1O,0,G1,A,None,None,Uncharged
A-4828,"InChI=1S/C9H20O/c1-8(5-6-10)7-9(2,3)4/h8,10H,5-7H2,1-4H3",-2.557079916,CC(CCO)CC(C)(C)C,0,G1,A,None,None,Uncharged
A-4829,"InChI=1S/C6H4ClNO3/c7-4-1-2-5(8(10)11)6(9)3-4/h1-3,9H",-2.637377139,[O-]C1=CC(Cl)=CC=C1[N+]([O-])=O,0,G1,A,None,None,Negative
A-4830,InChI=1S/C6H5Cl/c7-6-4-2-1-3-5-6/h1-5H,-2.449320235,ClC1=CC=CC=C1,0.132559197,G5,A,None,None,Uncharged
A-4831,"InChI=1S/C11H9NO4/c1-2-16-11(15)12-9(13)7-5-3-4-6-8(7)10(12)14/h3-6H,2H2,1H3",-2.738772633,CCOC(=O)N1C(=O)C2=CC=CC=C2C1=O,0,G1,A,None,None,Uncharged
A-4835,"InChI=1S/C12H18O/c1-11(9-10-13)7-8-12-5-3-2-4-6-12/h2-6,11,13H,7-10H2,1H3",-2.660025838,CC(CCO)CCC1=CC=CC=C1,0,G1,A,None,None,Uncharged
A-4836,"InChI=1S/C22H48N.ClH/c1-5-7-9-11-13-15-17-19-21-23(3,4)22-20-18-16-14-12-10-8-6-2;/h5-22H2,1-4H3;1H/q+1;/p-1",-2.967747126,CCCCCCCCCC[N+](C)(C)CCCCCCCCCC,0.110924375,G3,A,None,None,Positive
A-4837,"InChI=1S/C17H18F2N2/c18-15-5-1-13(2-6-15)17(21-11-9-20-10-12-21)14-3-7-16(19)8-4-14/h1-8,17,20H,9-12H2/p+2",-2.878601076,FC1=CC=C(C=C1)C(N1CC[NH2+]CC1)C1=CC=C(F)C=C1,0,G1,A,None,None,Positive
A-4839,"InChI=1S/C3H6N6.H4O7P2/c4-1-7-2(5)9-3(6)8-1;1-8(2,3)7-9(4,5)6/h(H6,4,5,6,7,8,9);(H2,1,2,3)(H2,4,5,6)",-2.90897944,NC1=NC(N)=[NH+]C(N)=N1,0,G1,A,None,Cosolvent Buffer,Positive
A-4842,"InChI=1S/C9H12N2O3/c1-7-2-3-8(10-4-5-12)9(6-7)11(13)14/h2-3,6,10,12H,4-5H2,1H3",-2.747405168,CC1=CC=C(NCCO)C(=C1)[N+]([O-])=O,0,G1,A,None,None,PureChargeSeparation
A-4845,"InChI=1S/C8H14O/c1-2-9-8-6-4-3-5-7-8/h2,8H,1,3-7H2",-2.582541974,C=COC1CCCCC1,0,G1,A,None,None,Uncharged
A-4846,"InChI=1S/C8H14O2/c1-3-9-7-5-6-8-10-4-2/h3-4H,1-2,5-8H2",-2.64774351,C=COCCCCOC=C,0.0990707,G3,A,None,None,Uncharged
A-4849,"InChI=1S/C10H9NO4S/c11-7-2-1-6-3-8(16(13,14)15)5-10(12)9(6)4-7/h1-5,12H,11H2,(H,13,14,15)",-2.883311239,NC1=CC2=C(O)C=C(C=C2C=C1)S([O-])(=O)=O,0,G1,A,None,None,Negative
A-4851,"InChI=1S/C16H12Cl2N4O7S2.2Na/c1-8-15(20-19-13-6-11(17)12(18)7-14(13)31(27,28)29)16(23)22(21-8)9-3-2-4-10(5-9)30(24,25)26;;/h2-7,15H,1H3,(H,24,25,26)(H,27,28,29);;/q;2*+1/p-2",-3.264264375,CC1=NN(C(=O)C1N=NC1=CC(Cl)=C(Cl)C=C1S([O-])(=O)=O)C1=CC=CC(=C1)S([O-])(=O)=O,0,G1,A,None,None,Negative
A-4852,"InChI=1S/C10H12.C10H8.C10H14.C9H10.C9H8.2C9H12.C7H8.C6H6/c2*1-2-6-10-8-4-3-7-9(10)5-1;1-3-9-5-7-10(4-2)8-6-9;2*1-2-5-9-7-3-6-8(9)4-1;1-7-4-8(2)6-9(3)5-7;1-8(2)9-6-4-3-5-7-9;1-7-5-3-2-4-6-7;1-2-4-6-5-3-1/h1-2,5-6H,3-4,7-8H2;1-8H;5-8H,3-4H2,1-2H3;1-2,4-5H,3,6-7H2;1-6H,7H2;4-6H,1-3H3;3-8H,1-2H3;2-6H,1H3;1-6H",-3.539740421,CCC1=CC=C(CC)C=C1,0.258119032,G5,A,None,Multi-constituent Substances,Uncharged
A-4853,"InChI=1S/2C8H10.C7H8.C5H10.C5H12/c1-7-4-3-5-8(2)6-7;1-2-8-6-4-3-5-7-8;1-7-5-3-2-4-6-7;1-2-4-5-3-1;1-3-5-4-2/h3-6H,1-2H3;3-7H,2H2,1H3;2-6H,1H3;1-5H2;3-5H2,1-2H3",-3.172955944,CCC1=CC=CC=C1,0.258119032,G5,A,None,Multi-constituent Substances,Uncharged
A-4854,"InChI=1S/C13H10N2O3S/c16-19(17,18)10-6-7-11-12(8-10)15-13(14-11)9-4-2-1-3-5-9/h1-8H,(H,14,15)(H,16,17,18)",-2.961106136,[O-]S(=O)(=O)C1=CC=C2N=C(NC2=C1)C1=CC=CC=C1,0.219847378,G3,A,None,None,Negative
A-4858,"InChI=1S/C8H8.C7H8.C6H6/c1-2-8-6-4-3-5-7-8;1-7-5-3-2-4-6-7;1-2-4-6-5-3-1/h2-7H,1H2;2-6H,1H3;1-6H",-2.961273931,C=CC1=CC=CC=C1,0.258119032,G5,A,None,Multi-constituent Substances,Uncharged
A-4860,"InChI=1S/C2H2O4.Mn/c3-1(4)2(5)6;/h(H,3,4)(H,5,6);/q;+2/p-2",-2.678081133,[O-]C(=O)C([O-])=O,0,G1,A,None,None,Negative
A-4862,"InChI=1S/3Li.H3O4P/c;;;1-5(2,3)4/h;;;(H3,1,2,3,4)/q3*+1;/p-3",-2.590925857,OP([O-])([O-])=O,0.027143744,G5,A,None,None,Negative
A-4863,"InChI=1S/C11H14O/c1-12-11-7-6-9-4-2-3-5-10(9)8-11/h6-8H,2-5H2,1H3",-2.747738524,COC1=CC=C2CCCCC2=C1,0,G1,A,None,None,Uncharged
A-4865,"InChI=1S/C10H10N2/c11-9-5-1-3-7-8(9)4-2-6-10(7)12/h1-6H,11-12H2",-2.767853696,NC1=CC=CC2=C(N)C=CC=C12,0.430218667,G5,A,None,None,Uncharged
A-4867,"InChI=1S/C10H20O/c1-9(11)7-8-10-5-3-2-4-6-10/h9-11H,2-8H2,1H3",-2.767361572,CC(O)CCC1CCCCC1,0,G1,A,None,None,Uncharged
A-4869,"InChI=1S/C4H6O6.Ba/c5-1(3(7)8)2(6)4(9)10;/h1-2,5-6H,(H,7,8)(H,9,10);/q;+2/p-2",-3.052330404,OC(C(O)C([O-])=O)C([O-])=O,0,G1,A,None,None,Negative
A-4870,"InChI=1S/C9H20O2/c1-3-5-7-10-9-11-8-6-4-2/h3-9H2,1-2H3",-2.806877,CCCCOCOCCCC,0.025304997,G3,A,None,None,Uncharged
A-4872,"InChI=1S/C19H22N2O/c1-2-13-12-21-10-8-14(13)11-18(21)19(22)16-7-9-20-17-6-4-3-5-15(16)17/h2-7,9,13-14,18-19,22H,1,8,10-12H2/t13-,14-,18+,19-/m0/s1",-3.088723614,OC(C1CC2CC[NH+]1CC2C=C)C1=CC=NC2=CC=CC=C12,0,G1,A,None,None,Positive
A-4873,"InChI=1S/C19H42N.ClH/c1-5-6-7-8-9-10-11-12-13-14-15-16-17-18-19-20(2,3)4;/h5-19H2,1-4H3;1H/q+1;/p-1",-3.124945522,CCCCCCCCCCCCCCCC[N+](C)(C)C,0,G1,A,None,None,Positive
A-4874,"InChI=1S/C13H18O4/c1-13(2)7-16-11(14)9-5-3-4-6-10(9)12(15)17-8-13/h3-4,9-10H,5-8H2,1-2H3",-3.004181056,CC1(C)COC(=O)C2CC=CCC2C(=O)OC1,0,G1,A,None,None,Uncharged
A-4876,"InChI=1S/C10H20O/c1-7(2)9-5-4-8(3)6-10(9)11/h7-11H,4-6H2,1-3H3/t8-,9-,10?/m1/s1",-2.830260853,CC(C)C1CCC(C)CC1O,0,G1,A,None,None,Uncharged
A-4878,"InChI=1S/C11H18O2/c1-8-6-5-7-11(2,3)9(8)10(12)13-4/h6,9H,5,7H2,1-4H3",-2.908515996,COC(=O)C1C(C)=CCCC1(C)C,0.069343443,G5,A,None,None,Uncharged
A-4884,"InChI=1S/C6H10/c1-5-6(2,3)4/h1H,2-4H3",-2.613556425,CC(C)(C)C#C,0,G1,A,None,None,Uncharged
A-4885,"InChI=1S/C30H64N.ClH/c1-5-7-9-11-13-15-17-19-21-23-25-27-29-31(3,4)30-28-26-24-22-20-18-16-14-12-10-8-6-2;/h5-30H2,1-4H3;1H/q+1;/p-1",-3.37502496,CCCCCCCCCCCCCC[N+](C)(C)CCCCCCCCCCCCCC,0,G1,A,None,None,Positive
A-4889,"InChI=1S/C12H16O3/c1-10(2)12(13)15-9-8-14-11-6-4-3-5-7-11/h3-7,10H,8-9H2,1-2H3",-3.026343537,CC(C)C(=O)OCCOC1=CC=CC=C1,0,G1,A,None,None,Uncharged
A-4890,"InChI=1S/C8H10N2O3S/c1-3-2-14-7-4(9)6(11)10(7)5(3)8(12)13/h4,7H,2,9H2,1H3,(H,12,13)",-3.045355413,CC1=C(N2C(SC1)C([NH3+])C2=O)C([O-])=O,0,G1,A,None,None,Zwitterion
A-4894,"InChI=1S/C8H9NO2/c1-5-2-3-6(8(9)11)7(10)4-5/h2-4,10H,1H3,(H2,9,11)",-2.917000159,CC1=CC=C(C(N)=O)C(O)=C1,0,G1,A,None,None,Uncharged
A-4896,"InChI=1S/C8H6ClNO/c9-6-2-1-5-3-8(11)10-7(5)4-6/h1-2,4H,3H2,(H,10,11)",-2.968988553,ClC1=CC=C2CC(=O)NC2=C1,0,G1,A,None,None,Uncharged
A-4899,"InChI=1S/C12H13N/c1-3-12(2,10-13)9-11-7-5-4-6-8-11/h3-8H,1,9H2,2H3",-3.000616717,CC(CC1=CC=CC=C1)(C=C)C#N,0.017087809,G3,A,None,None,Uncharged
A-4900,"InChI=1S/C12H20O4/c1-3-5-9-15-11(13)7-8-12(14)16-10-6-4-2/h7-8H,3-6,9-10H2,1-2H3/b8-7-",-3.128034162,CCCCOC(=O)C=CC(=O)OCCCC,0.234267081,G3,A,None,None,Uncharged
A-4903,"InChI=1S/C6H12N2O4S2/c7-3(5(9)10)1-13-14-2-4(8)6(11)12/h3-4H,1-2,7-8H2,(H,9,10)(H,11,12)/t3-,4-/m0/s1",-3.159921987,[NH3+]C(CSSCC([NH3+])C([O-])=O)C([O-])=O,0.080595134,G5,A,None,None,Zwitterion
A-4905,"InChI=1S/C9H18O2/c1-4-6-7-8(5-2)9(10)11-3/h8H,4-7H2,1-3H3",-2.989804004,CCCCC(CC)C(=O)OC,0.034303125,G5,A,None,None,Uncharged
A-4906,"InChI=1S/C6H10/c1-2-4-6-5-3-1/h1-2H,3-6H2",-2.710466438,C1CCC=CC1,0.062133219,G3,A,None,None,Uncharged
A-4907,"InChI=1S/C10H10N2O3/c13-6-5-12-9(14)7-3-1-2-4-8(7)11-10(12)15/h1-4,13H,5-6H2,(H,11,15)",-3.112893643,OCCN1C(=O)NC2=CC=CC=C2C1=O,0,G1,A,None,None,Uncharged
A-4908,"InChI=1S/C11H20O2/c1-2-3-4-5-6-7-10-8-9-11(12)13-10/h10H,2-9H2,1H3/t10-/m0/s1",-3.06681876,CCCCCCCC1CCC(=O)O1,0,G1,A,None,None,Uncharged
A-4909,"InChI=1S/Ca.H3O4P/c;1-5(2,3)4/h;(H3,1,2,3,4)/q+2;/p-2",-2.949026268,[Ca++].OP([O-])([O-])=O,0,G1,A,None,None,Negative
A-4911,"InChI=1S/C5H10/c1-3-5-4-2/h3H,1,4-5H2,2H3",-2.675673086,CCCC=C,0,G1,A,None,None,Uncharged
A-4913,"InChI=1S/C11H22O2/c1-3-5-6-10(4-2)7-12-8-11-9-13-11/h10-11H,3-9H2,1-2H3",-3.114865162,CCCCC(CC)COCC1CO1,0,G1,A,None,None,Uncharged
A-4914,InChI=1S/BO4P/c2-6-3-1(4-6)5-6,-2.869075736,O=P12OB(O1)O2,0,G1,A,None,None,Uncharged
A-4916,"InChI=1S/C11H10Cl2N2O/c12-8-1-2-9(10(13)5-8)11(16)6-15-4-3-14-7-15/h1-5,7,11,16H,6H2",-3.264007824,OC(CN1C=CN=C1)C1=CC=C(Cl)C=C1Cl,0.928145632,G4,A,None,None,Uncharged
A-4918,"InChI=1S/C16H35O4P/c1-5-9-11-15(7-3)13-19-21(17,18)20-14-16(8-4)12-10-6-2/h15-16H,5-14H2,1-4H3,(H,17,18)",-3.36230202,CCCCC(CC)COP([O-])(=O)OCC(CC)CCCC,0.122645165,G5,A,None,None,Negative
A-4919,"InChI=1S/C44H36N12O6S2.2Na/c57-63(58,59)37-27-35(49-43-53-39(45-31-13-5-1-6-14-31)51-40(54-43)46-32-15-7-2-8-16-32)25-23-29(37)21-22-30-24-26-36(28-38(30)64(60,61)62)50-44-55-41(47-33-17-9-3-10-18-33)52-42(56-44)48-34-19-11-4-12-20-34;;/h1-28H,(H,57,58,59)(H,60,61,62)(H3,45,46,49,51,53,54)(H3,47,48,50,52,55,56);;/q;2*+1/p-2/b22-21+;;",-3.825587453,[O-]S(=O)(=O)C1=CC(NC2=NC(NC3=CC=CC=C3)=NC(NC3=CC=CC=C3)=N2)=CC=C1C=CC1=CC=C(NC2=NC(NC3=CC=CC=C3)=NC(NC3=CC=CC=C3)=N2)C=C1S([O-])(=O)=O,0,G1,A,None,None,Negative
A-4920,"InChI=1S/C12H25NO2/c13-11-9-7-5-3-1-2-4-6-8-10-12(14)15/h1-11,13H2,(H,14,15)",-3.196398091,[NH3+]CCCCCCCCCCCC([O-])=O,0,G1,A,None,None,Zwitterion
A-4921,"InChI=1S/C10H20O/c1-8(2)6-10-7-9(3)4-5-11-10/h8-10H,4-7H2,1-3H3",-3.079929481,CC(C)CC1CC(C)CCO1,0,G1,A,None,None,Uncharged
A-4922,InChI=1S/C8H16N2O2S2/c1-5-11-6-2-9(1)13-14-10-3-7-12-8-4-10/h1-8H2,-3.259634304,C1CN(CCO1)SSN1CCOCC1,0.123698268,G5,A,None,None,Uncharged
A-4923,InChI=1S/C6H2BrF3/c7-3-1-4(8)6(10)5(9)2-3/h1-2H,-3.210297936,FC1=CC(Br)=CC(F)=C1F,0,G1,A,None,None,Uncharged
A-4924,InChI=1S/C9H16N2O2S2/c14-9(10-1-5-12-6-2-10)15-11-3-7-13-8-4-11/h1-8H2,-3.291300662,S=C(SN1CCOCC1)N1CCOCC1,0,G1,A,None,None,Uncharged
A-4926,"InChI=1S/C21H26N2O/c1-2-21(24)23(19-11-7-4-8-12-19)20-13-15-22(16-14-20)17-18-9-5-3-6-10-18/h3-12,20H,2,13-17H2,1H3",-3.41504339,CCC(=O)N(C1CC[NH+](CC2=CC=CC=C2)CC1)C1=CC=CC=C1,0,G1,A,None,None,Positive
A-4930,"InChI=1S/C12H18O/c1-8-6-9(2)11(13)10(7-8)12(3,4)5/h6-7,13H,1-5H3",-3.171909199,CC1=CC(C)=C(O)C(=C1)C(C)(C)C,0,G1,A,None,None,Uncharged