ID,InChI,Solubility,SMILEScurated,SD,Group,Dataset,Composition,Error,Charge
A-347,"InChI=1S/C22H18N2O3S/c25-28(26,27)21-13-7-8-16-14-19(23-17-9-3-1-4-10-17)15-20(22(16)21)24-18-11-5-2-6-12-18/h1-15,23-24H,(H,25,26,27)",-4.672502907,[O-]S(=O)(=O)C1=CC=CC2=CC(NC3=CC=CC=C3)=CC(NC3=CC=CC=C3)=C12,0,G1,A,mono-constituent,None,Negative
A-348,"InChI=1S/C12H26O4/c1-9-12(8,15-13-10(2,3)4)16-14-11(5,6)7/h9H2,1-8H3",-4.45076092,CCC(C)(OOC(C)(C)C)OOC(C)(C)C,0,G1,A,mono-constituent,Unstable,Uncharged
A-349,InChI=1S/C12H10S/c1-3-7-11(8-4-1)13-12-9-5-2-6-10-12/h1-10H,-4.360607869,S(C1=CC=CC=C1)C1=CC=CC=C1,0,G1,A,mono-constituent,None,Uncharged
A-350,"InChI=1S/C25H24N2O7S/c1-2-33-13-5-12-27-35(31,32)16-10-8-15(9-11-16)34-20-14-19(28)21-22(23(20)26)25(30)18-7-4-3-6-17(18)24(21)29/h3-4,6-11,14,27-28H,2,5,12-13,26H2,1H3",-4.787470096,CCOCCCNS(=O)(=O)C1=CC=C(OC2=CC(O)=C3C(=O)C4=CC=CC=C4C(=O)C3=C2N)C=C1,0,G1,A,mono-constituent,None,Uncharged
A-352,InChI=1S/C8Cl4O3/c9-3-1-2(8(14)15-7(1)13)4(10)6(12)5(3)11,-4.553119611,ClC1=C2C(=O)OC(=O)C2=C(Cl)C(Cl)=C1Cl,1.967868338,G4,A,mono-constituent,Unstable,Uncharged
A-355,"InChI=1S/C16H12Cl2N4O7S2.Ca/c1-8-15(20-19-13-6-11(17)12(18)7-14(13)31(27,28)29)16(23)22(21-8)9-3-2-4-10(5-9)30(24,25)26;/h2-7,15H,1H3,(H,24,25,26)(H,27,28,29);/q;+2/p-2",-3.839084061,CC1=NN(C(=O)C1N=NC1=CC(Cl)=C(Cl)C=C1S([O-])(=O)=O)C1=CC=CC(=C1)S([O-])(=O)=O,0,G1,A,mono-constituent,None,Negative
A-356,"InChI=1S/C2H6O/c1-2-3/h3H,2H2,1H3",1.233668218,CCO,0.096862849,G5,A,mono-constituent,None,Uncharged
A-359,"InChI=1S/C8H10O2/c1-9-7-3-5-8(10-2)6-4-7/h3-6H,1-2H3",-2.245531528,COC1=CC=C(OC)C=C1,0.0224182,G3,A,mono-constituent,None,Uncharged
A-360,"InChI=1S/C14H20O/c1-3-7-13(8-4-1)11-12-15-14-9-5-2-6-10-14/h1,3-4,7-8,14H,2,5-6,9-12H2",-2.418090055,C(CC1=CC=CC=C1)OC1CCCCC1,0,G1,A,mono-constituent,None,Uncharged
A-362,"InChI=1S/2C10H20O2.Co/c2*1-5-10(4,9(11)12)7-6-8(2)3;/h2*8H,5-7H2,1-4H3,(H,11,12);/q;;+2/p-2",-2.716017407,CCC(C)(CCC(C)C)C([O-])=O,0,G1,A,None,None,Negative
A-363,"InChI=1S/C13H20O/c1-5-7-11(14)12-10(2)8-6-9-13(12,3)4/h5-8,10,12H,9H2,1-4H3/b7-5+",-3.396366501,CC=CC(=O)C1C(C)C=CCC1(C)C,0,G1,A,mono-constituent,None,Uncharged
A-364,"InChI=1S/C14H14O6/c15-13(19-7-11-5-17-11)9-1-2-10(4-3-9)14(16)20-8-12-6-18-12/h1-4,11-12H,5-8H2",-3.557960056,O=C(OCC1CO1)C1=CC=C(C=C1)C(=O)OCC1CO1,0,G1,A,mono-constituent,None,Uncharged
A-365,"InChI=1S/C10H18O/c1-2-3-4-5-6-7-8-9-10-11/h6-7,10H,2-5,8-9H2,1H3/b7-6+",-3.301742894,CCCCCC=CCCC=O,0,G1,A,mono-constituent,None,Uncharged
A-367,"InChI=1S/C38H40N12O8S2.2Na/c1-49(19-21-51)37-45-33(39-27-9-5-3-6-10-27)43-35(47-37)41-29-17-15-25(31(23-29)59(53,54)55)13-14-26-16-18-30(24-32(26)60(56,57)58)42-36-44-34(40-28-11-7-4-8-12-28)46-38(48-36)50(2)20-22-52;;/h3-18,23-24,51-52H,19-22H2,1-2H3,(H,53,54,55)(H,56,57,58)(H2,39,41,43,45,47)(H2,40,42,44,46,48);;/q;2*+1/p-2/b14-13+;;",-3.069321152,CN(CCO)C1=NC(NC2=CC=C(C=CC3=CC=C(NC4=NC(=NC(NC5=CC=CC=C5)=N4)N(C)CCO)C=C3S([O-])(=O)=O)C(=C2)S([O-])(=O)=O)=NC(NC2=CC=CC=C2)=N1,0,G1,A,mono-constituent,Non Valid pH,Negative
A-368,"InChI=1S/C9H12O/c1-6-4-7(2)8(3)9(10)5-6/h4-5,10H,1-3H3",-2.252203004,CC1=CC(C)=C(C)C(O)=C1,0,G1,A,mono-constituent,None,Uncharged
A-369,"InChI=1S/C2H3F3/c1-2(3,4)5/h1H3",-2.043101387,CC(F)(F)F,0,G1,A,mono-constituent,None,Uncharged
A-370,"InChI=1S/C12H16O4/c1-12(2,15)11(14)9-3-5-10(6-4-9)16-8-7-13/h3-6,13,15H,7-8H2,1-2H3",-1.469930479,CC(C)(O)C(=O)C1=CC=C(OCCO)C=C1,0,G1,A,mono-constituent,None,Uncharged
A-371,InChI=1S/C2H3NS/c1-3-2-4/h1H3,-0.98322259,CN=C=S,0.014618336,G5,A,mono-constituent,None,Uncharged
A-372,"InChI=1S/C15H16N2O/c1-16(13-9-5-3-6-10-13)15(18)17(2)14-11-7-4-8-12-14/h3-12H,1-2H3",-3.497557581,CN(C(=O)N(C)C1=CC=CC=C1)C1=CC=CC=C1,0,G1,A,mono-constituent,None,Uncharged
A-373,InChI=1S/C14H24O4/c15-13-9-7-5-3-1-2-4-6-8-10-14(16)18-12-11-17-13/h1-12H2,-3.533758505,O=C1CCCCCCCCCCC(=O)OCCO1,0,G1,A,mono-constituent,None,Uncharged
A-374,"InChI=1S/C10H22O/c1-10(2)8-6-4-3-5-7-9-11/h10-11H,3-9H2,1-2H3",-3.324378497,CC(C)CCCCCCCO,0.213177472,G3,A,UVCB,None,Uncharged
A-376,"InChI=1S/2C3H6O2.Co/c2*1-2-3(4)5;/h2*2H2,1H3,(H,4,5);/q;;+2/p-2",-0.437662317,CCC([O-])=O,0,G1,A,mono-constituent,None,Negative
A-377,"InChI=1S/C11H12O3/c1-2-13-11(12)10-9(14-10)8-6-4-3-5-7-8/h3-7,9-10H,2H2,1H3",-2.409651238,CCOC(=O)C1OC1C1=CC=CC=C1,0,G1,A,multi-constituent,None,Uncharged
A-378,"InChI=1S/C9H20O/c1-8(2)6-5-7-9(3,4)10/h8,10H,5-7H2,1-4H3",-2.286983634,CC(C)CCCC(C)(C)O,0,G1,A,mono-constituent,None,Uncharged
A-379,"InChI=1S/C10H12O2/c1-2-10(11)12-8-9-6-4-3-5-7-9/h3-7H,2,8H2,1H3",-2.344979827,CCC(=O)OCC1=CC=CC=C1,0.435201953,G3,A,mono-constituent,None,Uncharged
A-381,"InChI=1S/C10H14O2/c1-3-10(12-9(2)11)7-5-4-6-8-10/h1H,4-8H2,2H3",-2.352215179,CC(=O)OC1(CCCCC1)C#C,0,G1,A,mono-constituent,None,Uncharged
A-382,"InChI=1S/C6H15N/c1-4-7(5-2)6-3/h4-6H2,1-3H3",-0.137682984,CC[NH+](CC)CC,0.335493418,G5,A,mono-constituent,None,Positive
A-383,"InChI=1S/C24H51N3/c1-2-3-4-5-6-7-8-9-10-11-12-13-14-15-16-17-21-26-23-19-24-27-22-18-20-25/h9-10,26-27H,2-8,11-25H2,1H3/b10-9-",-3.718391335,CCCCCCCCC=CCCCCCCCC[NH2+]CCCNCCC[NH3+],0,G1,A,UVCB,Non Valid pH,Positive
A-384,InChI=1S/C2H6S/c1-3-2/h1-2H3,-0.931218902,CSC,0.225565451,G5,A,mono-constituent,None,Uncharged
A-385,"InChI=1S/C2H5NS2.Na/c1-3-2(4)5;/h1H3,(H2,3,4,5);/q;+1/p-1",0.747325108,CNC([S-])=S,0,G1,A,mono-constituent,None,Negative
A-387,"InChI=1S/C6H4Cl3N/c7-3-1-5(9)6(10)2-4(3)8/h1-2H,10H2",-3.435950486,NC1=CC(Cl)=C(Cl)C=C1Cl,0,G1,A,mono-constituent,None,Uncharged
A-388,"InChI=1S/C6H3Cl4N/c7-5-3-1-2-4(11-5)6(8,9)10/h1-3H",-3.506108364,ClC1=CC=CC(=N1)C(Cl)(Cl)Cl,0.151664531,G5,A,mono-constituent,None,Uncharged
A-389,"InChI=1S/C11H8O3/c12-10-6-8-4-2-1-3-7(8)5-9(10)11(13)14/h1-6,12H,(H,13,14)",-3.417245584,OC1=CC2=CC=CC=C2C=C1C([O-])=O,0.571333752,G2,A,mono-constituent,Non Valid pH,Negative
A-390,"InChI=1S/3C5H8/c1-2-4-5-3-1;2*1-3-5-4-2/h1-2H,3-5H2;2*3-5H,1H2,2H3/b;5-4+;5-4-",-2.454265074,CC=CC=C,0.277547224,G3,A,None,Multi-constituent Substances,Uncharged
A-391,"InChI=1S/C13H18O/c1-10(2)12-5-4-6-13(9-12)11(3)7-8-14/h4-6,8-11H,7H2,1-3H3",-3.677346846,CC(C)C1=CC=CC(=C1)C(C)CC=O,0,G1,A,mono-constituent,None,Uncharged
A-396,"InChI=1S/C37H29ClN10O22S7.6Na/c38-35-42-36(40-18-3-1-4-20(15-18)71(50,51)12-11-70-77(67,68)69)44-37(43-35)41-19-7-10-26(73(55,56)57)24(16-19)46-47-31-27(74(58,59)60)13-17-14-28(75(61,62)63)32(33(49)29(17)30(31)39)48-45-23-9-8-21-22(34(23)76(64,65)66)5-2-6-25(21)72(52,53)54;;;;;;/h1-10,13-16,49H,11-12,39H2,(H,52,53,54)(H,55,56,57)(H,58,59,60)(H,61,62,63)(H,64,65,66)(H,67,68,69)(H2,40,41,42,43,44);;;;;;/q;6*+1/p-6",-1.277021164,NC1=C(N=NC2=CC(NC3=NC(Cl)=NC(NC4=CC=CC(=C4)S(=O)(=O)CCOS([O-])(=O)=O)=N3)=CC=C2S([O-])(=O)=O)C(=CC2=C1C(=O)C(=NNC1=C(C3=CC=CC(=C3C=C1)S([O-])(=O)=O)S([O-])(=O)=O)C(=C2)S([O-])(=O)=O)S([O-])(=O)=O,0.210681394,G3,A,mono-constituent,Non Valid pH,Negative
A-397,"InChI=1S/C5H3F7/c6-2-1-3(7,8)5(11,12)4(2,9)10/h2H,1H2",-2.436880918,FC1CC(F)(F)C(F)(F)C1(F)F,0,G1,A,mono-constituent,None,Uncharged
A-398,"InChI=1S/6C4H9.O.2Sn/c6*1-3-4-2;;;/h6*1,3-4H2,2H3;;;",-3.922851514,CCCC[Sn](CCCC)(CCCC)O[Sn](CCCC)(CCCC)CCCC,0,G1,A,mono-constituent,None,Uncharged
A-400,"InChI=1S/C5H12/c1-3-5-4-2/h3-5H2,1-2H3",-3.006984006,CCCCC,0.421426337,G5,A,UVCB,None,Uncharged
A-402,"InChI=1S/C10H12O2/c1-3-4-8-5-6-9(11)10(7-8)12-2/h3-7,11H,1-2H3/b4-3+",-2.364737497,COC1=CC(C=CC)=CC=C1O,0,G1,A,mono-constituent,None,Uncharged
A-403,"InChI=1S/C9H10O/c1-7-3-4-9(6-10)5-8(7)2/h3-6H,1-2H3",-2.277035079,CC1=CC=C(C=O)C=C1C,0,G1,A,mono-constituent,None,Uncharged
A-405,"InChI=1S/C8H11N.C3H7O4P.H2O/c1-7(9)8-5-3-2-4-6-8;1-2-3(7-2)8(4,5)6;/h2-7H,9H2,1H3;2-3H,1H3,(H2,4,5,6);1H2/t;2-,3+;/m.0./s1",-0.594139338,CC([NH3+])C1=CC=CC=C1,0,G1,A,None,Cosolvent Buffer,Positive
A-407,"InChI=1S/C20H8I4O5.2Na/c21-11-5-9-13(7-3-1-2-4-8(7)20(27)28)10-6-12(22)17(26)15(24)19(10)29-18(9)14(23)16(11)25;;/h1-6,25H,(H,27,28);;/q;2*+1/p-2",-1.099315041,[O-]C(=O)C1=CC=CC=C1C1=C2C=C(I)C(=O)C(I)=C2OC2=C(I)C([O-])=C(I)C=C12,0.054572235,G3,A,mono-constituent,None,Negative
A-409,"InChI=1S/C6H12O2/c1-3-4-5-8-6(2)7/h3-5H2,1-2H3",-1.219958563,CCCCOC(C)=O,0.148206266,G5,A,mono-constituent,None,Uncharged
A-410,"InChI=1S/C12H12N2O6S2/c13-7-1-3-9(11(5-7)21(15,16)17)10-4-2-8(14)6-12(10)22(18,19)20/h1-6H,13-14H2,(H,15,16,17)(H,18,19,20)",-2.691927271,NC1=CC=C(C2=CC=C(N)C=C2S([O-])(=O)=O)C(=C1)S([O-])(=O)=O,0.034092931,G3,A,mono-constituent,None,Negative
A-411,"InChI=1S/C8H7NO5/c1-14-7-3-5(4-10)2-6(8(7)11)9(12)13/h2-4,11H,1H3",-2.44968993,COC1=CC(C=O)=CC(=C1[O-])[N+]([O-])=O,0,G1,A,mono-constituent,None,Negative
A-412,"InChI=1S/C12H18N2O/c1-4-14(5-2)12-8-6-7-11(9-12)13-10(3)15/h6-9H,4-5H2,1-3H3,(H,13,15)",-2.469378031,CCN(CC)C1=CC=CC(NC(C)=O)=C1,0,G1,A,mono-constituent,None,Uncharged
A-415,InChI=1S/O.Pb,-3.502355132,O=[Pb],0,G1,A,mono-constituent,None,Uncharged
A-416,"InChI=1S/C15H17N3/c1-11-7-3-5-9-13(11)17-15(16)18-14-10-6-4-8-12(14)2/h3-10H,1-2H3,(H3,16,17,18)",-3.533884584,CC1=CC=CC=C1NC(=[NH2+])NC1=CC=CC=C1C,0,G1,A,mono-constituent,Non Valid pH,Positive
A-420,"InChI=1S/C24H40O3/c1-9-11-17(10-2)16-27-21(25)13-12-18-14-19(23(3,4)5)22(26)20(15-18)24(6,7)8/h14-15,17,26H,9-13,16H2,1-8H3",-7.09873715,CCCC(CC)COC(=O)CCC1=CC(=C(O)C(=C1)C(C)(C)C)C(C)(C)C,3.270213533,G4,A,None,None,Uncharged
A-421,"InChI=1S/C15H24/c1-10-11-6-7-12-13(11)14(2,3)8-5-9-15(10,12)4/h11-13H,1,5-9H2,2-4H3",-4.412762427,CC12CCCC(C)(C)C3C(CCC13)C2=C,0,G1,A,mono-constituent,None,Uncharged
A-422,"InChI=1S/C15H14O3/c16-14-9-5-4-8-13(14)15(17)18-11-10-12-6-2-1-3-7-12/h1-9,16H,10-11H2",-4.489105335,OC1=CC=CC=C1C(=O)OCCC1=CC=CC=C1,0,G1,A,mono-constituent,None,Uncharged
A-425,"InChI=1S/C17H16O4/c1-13(21-17(19)15-10-6-3-7-11-15)12-20-16(18)14-8-4-2-5-9-14/h2-11,13H,12H2,1H3",-4.567302938,CC(COC(=O)C1=CC=CC=C1)OC(=O)C1=CC=CC=C1,0,G1,A,multi-constituent,None,Uncharged
A-426,"InChI=1S/3Ca.2H3O4P/c;;;2*1-5(2,3)4/h;;;2*(H3,1,2,3,4)/q3*+2;;/p-6",-4.605114666,OP([O-])([O-])=O,0.034462678,G3,A,mono-constituent,None,Negative
A-427,"InChI=1S/C13H24O2/c1-5-13(3,4)11-8-6-7-9-12(11)15-10(2)14/h11-12H,5-9H2,1-4H3",-4.446203904,CCC(C)(C)C1CCCCC1OC(C)=O,0,G1,A,multi-constituent,None,Uncharged
A-429,"InChI=1S/C14H15N/c15-11-14(12-7-3-1-4-8-12)13-9-5-2-6-10-13/h1,3-4,7-8H,2,5-6,9-10H2",-4.420023997,N#CC(=C1CCCCC1)C1=CC=CC=C1,0,G1,A,mono-constituent,None,Uncharged
A-431,"InChI=1S/C14H11Cl2NO2/c15-10-5-3-6-11(16)14(10)17-12-7-2-1-4-9(12)8-13(18)19/h1-7,17H,8H2,(H,18,19)",-4.620257788,[O-]C(=O)CC1=CC=CC=C1NC1=C(Cl)C=CC=C1Cl,0.676375108,G4,A,mono-constituent,None,Negative
A-432,"InChI=1S/C14H12N2O4/c17-15(18)13-7-3-11(4-8-13)1-2-12-5-9-14(10-6-12)16(19)20/h3-10H,1-2H2",-4.5898858,[O-][N+](=O)C1=CC=C(CCC2=CC=C(C=C2)[N+]([O-])=O)C=C1,0,G1,A,mono-constituent,Non Valid pH,PureChargeSeparation
A-433,"InChI=1S/C14H22O/c1-13(2,3)10-14(4,5)11-6-8-12(15)9-7-11/h6-9,15H,10H2,1-5H3",-4.469462233,CC(C)(C)CC(C)(C)C1=CC=C(O)C=C1,0,G1,A,mono-constituent,None,Uncharged
A-434,"InChI=1S/C15H24O/c1-2-3-4-5-6-7-8-9-14-10-12-15(16)13-11-14/h10-13,16H,2-9H2,1H3",-4.49802684,CCCCCCCCCC1=CC=C(O)C=C1,0,G1,A,mono-constituent,Sanofi Overlap,Uncharged
A-435,"InChI=1S/C15H13N3O5/c1-23-13-7-4-10(8-12(13)18(21)22)15(20)17-11-5-2-9(3-6-11)14(16)19/h2-8H,1H3,(H2,16,19)(H,17,20)",-4.653605269,COC1=CC=C(C=C1[N+]([O-])=O)C(=O)NC1=CC=C(C=C1)C(N)=O,0,G1,A,mono-constituent,None,PureChargeSeparation
A-436,"InChI=1S/C20H43N.ClH/c1-4-5-6-7-8-9-10-11-12-13-14-15-16-17-18-19-20-21(2)3;/h4-20H2,1-3H3;1H",-4.678690034,CCCCCCCCCCCCCCCCCC[NH+](C)C,0,G1,A,None,None,Positive
A-441,"InChI=1S/C16H36N.BrH/c1-5-9-13-17(14-10-6-2,15-11-7-3)16-12-8-4;/h5-16H2,1-4H3;1H/q+1;/p-1",1.332024844,CCCC[N+](CCCC)(CCCC)CCCC,0,G1,A,mono-constituent,None,Positive
A-444,InChI=1S/Cd.2H2O/h;2*1H2/q+2;;/p-2,-3.323633394,[Cd++],0,G1,A,None,None,Uncharged
A-445,"InChI=1S/4C11H11FO2/c4*12-8-2-4-9-7(5-8)1-3-10(14-9)11-6-13-11/h4*2,4-5,10-11H,1,3,6H2/t2*10-,11+;2*10-,11-/m1010/s1",-3.052101177,FC1=CC=C2OC(CCC2=C1)C1CO1,0,G1,A,None,Multi-constituent Substances,Uncharged
A-447,"InChI=1S/C10H18O/c1-9(2)5-4-6-10(3)7-8-11/h5,7,11H,4,6,8H2,1-3H3/b10-7+",-2.351909504,CC(C)=CCCC(C)=CCO,0.418162058,G3,A,mono-constituent,None,Uncharged
A-451,"InChI=1S/C8H10O2/c1-9-7-5-3-4-6-8(7)10-2/h3-6H,1-2H3",-1.314975067,COC1=CC=CC=C1OC,0,G1,A,mono-constituent,None,Uncharged
A-452,"InChI=1S/C5H10N4O.H2O4S/c6-4-3-8-9(1-2-10)5(4)7;1-5(2,3)4/h3,10H,1-2,6-7H2;(H2,1,2,3,4)",0.444259344,NC1=C(N)N(CCO)N=C1,0,G1,A,mono-constituent,Cosolvent Buffer,Uncharged
A-453,"InChI=1S/C6H6O6S2.2Na/c7-13(8,9)5-2-1-3-6(4-5)14(10,11)12;;/h1-4H,(H,7,8,9)(H,10,11,12);;/q;2*+1/p-2",0.370947285,[O-]S(=O)(=O)C1=CC(=CC=C1)S([O-])(=O)=O,0,G1,A,mono-constituent,None,Negative
A-454,"InChI=1S/C18H39O7P/c1-4-7-10-20-13-16-23-26(19,24-17-14-21-11-8-5-2)25-18-15-22-12-9-6-3/h4-18H2,1-3H3",-2.778562332,CCCCOCCOP(=O)(OCCOCCCC)OCCOCCCC,0.109781166,G3,A,mono-constituent,None,Uncharged
A-457,"InChI=1S/C7H16O/c1-3-4-5-6-7-8-2/h3-7H2,1-2H3",-2.245085326,CCCCCCOC,0,G1,A,mono-constituent,None,Uncharged
A-458,"InChI=1S/C7H3ClF3NO2/c8-5-2-1-4(7(9,10)11)3-6(5)12(13)14/h1-3H",-2.533704672,[O-][N+](=O)C1=CC(=CC=C1Cl)C(F)(F)F,0,G1,A,mono-constituent,None,PureChargeSeparation
A-461,"InChI=1S/C22H29FO5/c1-12-8-16-15-5-4-13-9-14(25)6-7-19(13,2)21(15,23)17(26)10-20(16,3)22(12,28)18(27)11-24/h6-7,9,12,15-17,24,26,28H,4-5,8,10-11H2,1-3H3/t12-,15-,16-,17-,19-,20-,21-,22-/m0/s1",-3.7709815,CC1CC2C3CCC4=CC(=O)C=CC4(C)C3(F)C(O)CC2(C)C1(O)C(=O)CO,0,G1,A,mono-constituent,None,Uncharged
A-463,"InChI=1S/C13H18O/c1-10(2)12-4-6-13(7-5-12)11(3)8-9-14/h4-7,9-11H,8H2,1-3H3",-3.459862901,CC(C)C1=CC=C(C=C1)C(C)CC=O,0,G1,A,None,None,Uncharged
A-465,"InChI=1S/C10H18O/c1-7-4-8(2)10(6-11)9(3)5-7/h4,8-11H,5-6H2,1-3H3",-2.371197393,CC1CC(C)=CC(C)C1CO,0,G1,A,multi-constituent,None,Uncharged
A-466,"InChI=1S/C11H20O/c1-5-10(3)8-7-9-11(4,12)6-2/h6,8,12H,2,5,7,9H2,1,3-4H3/b10-8+",-2.409128664,CCC(C)=CCCC(C)(O)C=C,0,G1,A,multi-constituent,None,Uncharged
A-467,"InChI=1S/C18H18O9/c19-16(25-7-11-4-22-11)10-1-2-14(17(20)26-8-12-5-23-12)15(3-10)18(21)27-9-13-6-24-13/h1-3,11-13H,4-9H2",-2.762296476,O=C(OCC1CO1)C1=CC=C(C(=O)OCC2CO2)C(=C1)C(=O)OCC1CO1,0,G1,A,mono-constituent,None,Uncharged
A-468,"InChI=1S/C12H16O/c1-10-8-12(2,9-13-10)11-6-4-3-5-7-11/h3-7,10H,8-9H2,1-2H3",-2.433237945,CC1CC(C)(CO1)C1=CC=CC=C1,0,G1,A,multi-constituent,Non Valid pH,Uncharged
A-469,"InChI=1S/C10H20O2/c1-4-7-8-9(5-2)10(11)12-6-3/h9H,4-8H2,1-3H3",-3.423291255,CCCCC(CC)C(=O)OCC,0,G1,A,mono-constituent,None,Uncharged
A-470,"InChI=1S/C9H7NO/c11-8-5-1-3-7-4-2-6-10-9(7)8/h1-6,11H",-2.349605255,OC1=CC=CC2=CC=CN=C12,0.040840161,G5,A,mono-constituent,None,Uncharged
A-471,"InChI=1S/C30H28ClN7O14S4.3Na/c1-3-38(19-5-4-6-21(15-19)53(40,41)12-11-52-56(48,49)50)30-34-28(31)33-29(35-30)32-18-7-9-22-17(13-18)14-25(55(45,46)47)26(27(22)39)37-36-23-10-8-20(51-2)16-24(23)54(42,43)44;;;/h4-10,13-16,36H,3,11-12H2,1-2H3,(H,42,43,44)(H,45,46,47)(H,48,49,50)(H,32,33,34,35);;;/q;3*+1/p-3/b37-26-;;;",-1.161671108,CCN(C1=CC=CC(=C1)S(=O)(=O)CCOS([O-])(=O)=O)C1=NC(Cl)=NC(NC2=CC=C3C(=C2)C=C(C(=NNC2=CC=C(OC)C=C2S([O-])(=O)=O)C3=O)S([O-])(=O)=O)=N1,0.142667504,G3,A,mono-constituent,None,Negative
A-472,InChI=1S/2H2O.Zn/h2*1H2;/q;;+2/p-2,-2.185828855,[Zn++],0,G1,A,None,None,Uncharged
A-475,"InChI=1S/C10H14O2/c1-3-11-9-7-5-6-8-10(9)12-4-2/h5-8H,3-4H2,1-2H3",-2.41045076,CCOC1=CC=CC=C1OCC,0,G1,A,mono-constituent,None,Uncharged
A-476,"InChI=1S/C4H8/c1-3-4-2/h3-4H,1-2H3/b4-3+",-1.939465074,CC=CC,0.050567463,G3,A,mono-constituent,Non Valid pH,Uncharged
A-477,"InChI=1S/C5H12O5/c6-1-3(8)5(10)4(9)2-7/h3-10H,1-2H2",0.625274489,OCC(O)C(O)C(O)CO,0,G1,A,None,None,Uncharged
A-478,"InChI=1S/C5H8/c1-4-5(2)3/h4H,1-2H2,3H3",-2.025733236,CC(=C)C=C,0,G1,A,mono-constituent,None,Uncharged
A-481,"InChI=1S/C27H58N4/c1-2-3-4-5-6-7-8-9-10-11-12-13-14-15-16-17-22-29-24-19-26-31-27-20-25-30-23-18-21-28/h9-10,29-31H,2-8,11-28H2,1H3/b10-9+",-3.836075758,CCCCCCCCC=CCCCCCCCC[NH2+]CCC[NH2+]CCC[NH2+]CCCN,0,G1,A,None,None,Positive
A-482,"InChI=1S/C10H22O/c1-9(2)5-4-6-10(3)7-8-11/h9-11H,4-8H2,1-3H3",-3.393259787,CC(C)CCCC(C)CCO,0,G1,A,mono-constituent,None,Uncharged
A-483,"InChI=1S/C30H32N6O12S3.2Na/c1-5-35-27(37)23(15-49(41,42)43)17(3)25(29(35)39)33-31-19-7-11-21(12-8-19)51(47,48)22-13-9-20(10-14-22)32-34-26-18(4)24(16-50(44,45)46)28(38)36(6-2)30(26)40;;/h7-14,39-40H,5-6,15-16H2,1-4H3,(H,41,42,43)(H,44,45,46);;/q;2*+1/p-2",-2.10218738,CCN1C(=O)C(CS([O-])(=O)=O)=C(C)C(=NNC2=CC=C(C=C2)S(=O)(=O)C2=CC=C(NN=C3C(C)=C(CS([O-])(=O)=O)C(=O)N(CC)C3=O)C=C2)C1=O,0,G1,A,None,None,Negative
A-485,"InChI=1S/C8H8O/c1-7(9)8-5-3-2-4-6-8/h2-6H,1H3",-1.28038684,CC(=O)C1=CC=CC=C1,0.05962319,G5,A,mono-constituent,None,Uncharged
A-487,"InChI=1S/C11H22O/c1-4-6-7-9-11(12)10(3)8-5-2/h8,11-12H,4-7,9H2,1-3H3/b10-8+",-3.431863898,CCCCCC(O)C(C)=CCC,0,G1,A,mono-constituent,None,Uncharged
A-488,"InChI=1S/C8H16O2/c1-3-5-7-10-8(9)6-4-2/h3-7H2,1-2H3",-2.361047779,CCCCOC(=O)CCC,0.04952611,G3,A,mono-constituent,None,Uncharged
A-491,"InChI=1S/C8H6O4/c9-7(10)5-3-1-2-4-6(5)8(11)12/h1-4H,(H,9,10)(H,11,12)",-1.424573276,[O-]C(=O)C1=CC=CC=C1C([O-])=O,0.329864933,G5,A,mono-constituent,None,Negative
A-492,"InChI=1S/C11H16O/c12-6-9-3-4-10-7-1-2-8(5-7)11(9)10/h6-11H,1-5H2",-2.419967647,O=CC1CCC2C3CCC(C3)C12,0,G1,A,multi-constituent,None,Uncharged
A-493,"InChI=1S/C12H18.H2O2/c1-9(2)11-7-5-6-8-12(11)10(3)4;1-2/h5-10H,1-4H3;1-2H",-2.497713585,CC(C)C1=CC=CC=C1C(C)C,0,G1,A,None,None,Uncharged
A-494,"InChI=1S/C8H10O/c1-6-4-3-5-7(2)8(6)9/h3-5,9H,1-2H3",-1.292396158,CC1=CC=CC(C)=C1O,0.128070997,G5,A,mono-constituent,None,Uncharged
A-495,InChI=1S/Re,-0.475507957,[Re],0,G1,A,mono-constituent,None,Uncharged
A-496,"InChI=1S/C9H12O/c1-2-9(10)8-6-4-3-5-7-8/h3-7,9-10H,2H2,1H3",-2.340367591,CCC(O)C1=CC=CC=C1,0,G1,A,mono-constituent,None,Uncharged
A-497,"InChI=1S/C9H7F3O/c1-6(13)7-3-2-4-8(5-7)9(10,11)12/h2-5H,1H3",-2.482107917,CC(=O)C1=CC=CC(=C1)C(F)(F)F,0,G1,A,mono-constituent,None,Uncharged
A-498,"InChI=1S/C6H5Cl2N/c7-4-1-2-6(9)5(8)3-4/h1-3H,9H2",-2.417174258,NC1=CC=C(Cl)C=C1Cl,0.069589588,G3,A,mono-constituent,None,Uncharged
A-499,"InChI=1S/C12H20O2/c1-8(13)14-10-7-9-5-6-12(10,4)11(9,2)3/h9-10H,5-7H2,1-4H3/t9-,10+,12+/m0/s1",-3.496323842,CC(=O)OC1CC2CCC1(C)C2(C)C,0,G1,A,mono-constituent,None,Uncharged
A-500,"InChI=1S/C12H14N4O5S2/c13-15-22(17,18)11-5-1-9(2-6-11)21-10-3-7-12(8-4-10)23(19,20)16-14/h1-8,15-16H,13-14H2",-3.758489195,NNS(=O)(=O)C1=CC=C(OC2=CC=C(C=C2)S(=O)(=O)NN)C=C1,0,G1,A,mono-constituent,Non Valid pH,Uncharged
A-501,"InChI=1S/H3O4P.Sr/c1-5(2,3)4;/h(H3,1,2,3,4);/q;+2/p-3",-3.468385388,OP([O-])([O-])=O,0,G1,A,None,None,Negative
A-503,"InChI=1S/C10H16/c1-3-5-7-9-10-8-6-4-2/h3,5-8H,1,4,9-10H2,2H3/b7-5+,8-6+",-3.34190657,CCC=CCCC=CC=C,0.120516033,G3,A,UVCB,None,Uncharged
A-504,"InChI=1S/C4H8O2/c5-3-1-2-4-6/h1-2,5-6H,3-4H2/b2-1-",0.846685164,OCC=CCO,0,G1,A,mono-constituent,None,Uncharged
A-506,"InChI=1S/C12H22O5/c1-4-14-5-6-15-7-8-16-9-10-17-12(13)11(2)3/h2,4-10H2,1,3H3",-0.603011426,CCOCCOCCOCCOC(=O)C(C)=C,0,G1,A,mono-constituent,None,Uncharged
A-508,"InChI=1S/C10H12N2O5S/c1-4(13)17-2-5-3-18-9-6(11)8(14)12(9)7(5)10(15)16/h6,9H,2-3,11H2,1H3,(H,15,16)/t6-,9-/m1/s1",-2.648977722,CC(=O)OCC1=C(N2C(SC1)C([NH3+])C2=O)C([O-])=O,0,G1,A,mono-constituent,None,Zwitterion
A-511,"InChI=1S/C10H20O2/c1-2-3-4-5-6-7-8-9-10(11)12/h2-9H2,1H3,(H,11,12)",-3.445216137,CCCCCCCCCC([O-])=O,0.192551392,G3,A,mono-constituent,None,Negative
A-514,"InChI=1S/C4H10/c1-4(2)3/h4H,1-3H3",-2.977604072,CC(C)C,0.265370444,G5,A,mono-constituent,None,Uncharged
A-515,"InChI=1S/C4H10/c1-3-4-2/h3-4H2,1-2H3",-2.977604072,CCCC,0.256788365,G5,A,mono-constituent,None,Uncharged
A-516,InChI=1S/C2H6/c1-2/h1-2H3,-2.691382006,CC,0.599586986,G4,A,mono-constituent,None,Uncharged
A-519,"InChI=1S/C12H18O/c1-12(2)10-6-5-9(4-3-7-13)11(12)8-10/h5,7,10-11H,3-4,6,8H2,1-2H3",-3.46576061,CC1(C)C2CC1C(CCC=O)=CC2,0,G1,A,mono-constituent,None,Uncharged
A-520,"InChI=1S/C8H8O3/c9-7-3-1-6(2-4-7)5-8(10)11/h1-4,9H,5H2,(H,10,11)",-0.399080411,OC1=CC=C(CC([O-])=O)C=C1,0.395483155,G5,A,mono-constituent,None,Negative