ID,InChI,Solubility,SMILEScurated,SD,Group,Dataset,Composition,Error,Charge
A-5389,"InChI=1S/C27H33N2.C2H4O2/c1-5-28(6-2)25-18-14-23(15-19-25)27(22-12-10-9-11-13-22)24-16-20-26(21-17-24)29(7-3)8-4;1-2(3)4/h9-21H,5-8H2,1-4H3;1H3,(H,3,4)/q+1;/p-1",-0.647988018,CC([O-])=O.CCN(CC)C1=CC=C(C=C1)[C+](C1=CC=CC=C1)C1=CC=C(C=C1)N(CC)CC,0,G1,A,None,Cosolvent Buffer,Zwitterion
A-5391,"InChI=1S/C3H9O3P/c1-5-7(3,4)6-2/h1-3H3",-0.093687784,COP(C)(=O)OC,0.499993892,G3,A,None,None,Uncharged
A-5392,InChI=1S/C2H6O3P/c1-4-6(3)5-2/h1-2H3/q+1,-0.037589826,CO[P+](=O)OC,0,G1,A,None,None,Positive
A-5395,"InChI=1S/C13H31N3P.BF4/c1-14(2)17(15(3)4,16(5)6)12-13-10-8-7-9-11-13;2-1(3,4)5/h13H,7-12H2,1-6H3;/q+1;-1",-1.507143452,F[B-](F)(F)F.CN(C)[P+](CC1CCCCC1)(N(C)C)N(C)C,0,G1,A,None,Cosolvent Buffer,Zwitterion
A-5396,"InChI=1S/C6F12O/c7-2(4(10,11)12,5(13,14)15)1(19)3(8,9)6(16,17)18",-1.499743427,FC(F)(F)C(F)(F)C(=O)C(F)(C(F)(F)F)C(F)(F)F,0,G1,A,None,None,Uncharged
A-5397,InChI=1S/4ClH.Pd/h4*1H;/q;;;;+2/p-2,-1.398370615,[Pd++],0,G1,A,None,None,Uncharged
A-5398,InChI=1S/2NO3.Pd/c2*2-1(3)4;/q2*-1;+2,-1.36253525,[O-][N+]([O-])=O,0,G1,A,None,None,Negative
A-5399,"InChI=1S/C42H29N7O13S4.4Na/c50-42-40(66(60,61)62)21-24-20-26(43-25-6-2-1-3-7-25)10-13-29(24)41(42)49-47-35-16-15-34(30-8-4-5-9-31(30)35)44-46-37-18-17-36(32-14-11-27(22-33(32)37)63(51,52)53)45-48-38-23-28(64(54,55)56)12-19-39(38)65(57,58)59;;;;/h1-23,43,47H,(H,51,52,53)(H,54,55,56)(H,57,58,59)(H,60,61,62);;;;/q;4*+1/p-4/b46-44?,48-45?,49-41-;;;;",-2.023633484,OC1=C(N=NC2=CC=C(N=NC3=CC=C(N=NC4=CC(=CC=C4S([O-])(=O)=O)S([O-])(=O)=O)C4=CC=C(C=C34)S([O-])(=O)=O)C3=CC=CC=C23)C2=CC=C(NC3=CC=CC=C3)C=C2C=C1S([O-])(=O)=O,0,G1,A,None,None,Negative
A-5402,"InChI=1S/C15H29NO3/c1-2-3-4-5-6-7-8-9-10-15(19)16(11-13-17)12-14-18/h2,17-18H,1,3-14H2",-2.761513586,OCCN(CCO)C(=O)CCCCCCCCC=C,0,G1,A,None,None,Uncharged
A-5404,"InChI=1S/C11H18O2/c1-5-11(4,13-9-12)8-6-7-10(2)3/h5,7,9H,1,6,8H2,2-4H3",-4.040590426,CC(C)=CCCC(C)(OC=O)C=C,0,G1,A,None,None,Uncharged
A-5405,"InChI=1S/C11H9N3O2/c15-10(8-4-2-1-3-5-8)13-9-6-7-12-11(16)14-9/h1-7H,(H2,12,13,14,15,16)",-5.159680215,O=C(NC1=CC=NC(=O)N1)C1=CC=CC=C1,0,G1,A,None,None,Uncharged
A-5406,"InChI=1S/C8H4I3NO4/c9-3-1(7(13)14)4(10)6(12)5(11)2(3)8(15)16/h12H2,(H,13,14)(H,15,16)/p-2",-1.569622787,NC1=C(I)C(C([O-])=O)=C(I)C(C([O-])=O)=C1I,0,G1,A,None,None,Negative
A-5407,"InChI=1S/C18H30O3S.C4H11NO/c1-2-3-4-5-6-7-8-9-10-11-14-17-15-12-13-16-18(17)22(19,20)21;1-4(2,5)3-6/h12-13,15-16H,2-11,14H2,1H3,(H,19,20,21);6H,3,5H2,1-2H3",0.213791577,CCCCCCCCCCCCC1=CC=CC=C1S([O-])(=O)=O,0,G1,A,None,Cosolvent Buffer,Negative
A-5408,"InChI=1S/C14H18O10/c15-11(16)1-3-13(19)23-9-7-21-5-6-22-8-10-24-14(20)4-2-12(17)18/h1-4H,5-10H2,(H,15,16)(H,17,18)/b3-1-,4-2-",0.159532562,[O-]C(=O)C=CC(=O)OCCOCCOCCOC(=O)C=CC([O-])=O,0,G1,A,None,None,Negative
A-5410,"InChI=1S/C34H34N2O8S2.2Na/c1-23(19-21-43-45(39,40)25-11-5-3-6-12-25)35-29-17-18-30(32-31(29)33(37)27-15-9-10-16-28(27)34(32)38)36-24(2)20-22-44-46(41,42)26-13-7-4-8-14-26;;/h3-18,23-24H,19-22H2,1-2H3,(H2,35,36,37,38);;/q;2*+1/p-2",-0.437646111,CC(CCOS(=O)(=O)C1=CC=CC=C1)NC1=CC=C(NC(C)CCOS(=O)(=O)C2=CC=CC=C2)C2=C1C(=O)C1=CC=CC=C1C2=O,0,G1,A,None,None,Uncharged
A-5412,"InChI=1S/C20H14N2O8S2.Cr.Na/c23-15-10-17(32(28,29)30)12-5-1-2-6-13(12)19(15)22-21-14-9-8-11-4-3-7-16(31(25,26)27)18(11)20(14)24;;/h1-10,23-24H,(H,25,26,27)(H,28,29,30);;/q;+3;+1/p-4",-1.171951452,OC1=C(N=NC2=C(O)C3=C(C=CC=C3C=C2)S([O-])(=O)=O)C2=CC=CC=C2C(=C1)S([O-])(=O)=O,0,G1,A,None,None,Negative
A-5413,"InChI=1S/C8H6FNO/c9-6-3-1-2-5-4-7(11)10-8(5)6/h1-3H,4H2,(H,10,11)",-2.225136908,FC1=CC=CC2=C1NC(=O)C2,0,G1,A,None,None,Uncharged
A-5414,"InChI=1S/C16H36N2O/c1-16(2)10-6-4-3-5-7-14-19-15-9-13-18-12-8-11-17/h16,18H,3-15,17H2,1-2H3",-3.204880928,CC(C)CCCCCCCOCCC[NH2+]CCC[NH3+],0,G1,A,None,None,Positive
A-5416,"InChI=1S/C35H28N10O8S2.2Na/c36-21-8-15-27(26(37)18-21)43-40-25-13-11-22(12-14-25)39-35(47)19-6-9-24(10-7-19)42-44-32-28(54(48,49)50)16-20-17-29(55(51,52)53)33(34(46)30(20)31(32)38)45-41-23-4-2-1-3-5-23;;/h1-18,41H,36-38H2,(H,39,47)(H,48,49,50)(H,51,52,53);;/q;2*+1/p-2/b43-40?,44-42?,45-33+;;",-1.340682714,NC1=CC=C(N=NC2=CC=C(NC(=O)C3=CC=C(C=C3)N=NC3=C(N)C4=C(C=C(C(=NNC5=CC=CC=C5)C4=O)S([O-])(=O)=O)C=C3S([O-])(=O)=O)C=C2)C(N)=C1,0,G1,A,None,None,Negative
A-5417,"InChI=1S/C2H2O4.2Ce/c3-1(4)2(5)6;;/h(H,3,4)(H,5,6);;/p-2",-4.873295836,[O-]C(=O)C([O-])=O,0.973000995,G4,A,None,None,Negative
A-5423,"InChI=1S/C18H34O5/c1-4-7-9-10-12-17(21)23-15-18(6-3,13-19)14-22-16(20)11-8-5-2/h19H,4-15H2,1-3H3",-5.982567027,CCCCCCC(=O)OCC(CC)(CO)COC(=O)CCCC,0,G1,A,None,None,Uncharged
A-5425,"InChI=1S/2C8H17.C2H4O2S.Sn/c2*1-3-5-7-8-6-4-2;3-2(4)1-5;/h2*1,3-8H2,2H3;5H,1H2,(H,3,4);/q;;;+2/p-2",-6.445626155,CCCCCCCC[Sn]1(CCCCCCCC)OC(=O)CS1,0,G1,A,None,None,Uncharged
A-5426,"InChI=1S/C12H20O4/c1-3-15-11(13)9-5-7-10(8-6-9)12(14)16-4-2/h9-10H,3-8H2,1-2H3",-2.251273114,CCOC(=O)C1CCC(CC1)C(=O)OCC,0,G1,A,None,None,Uncharged
A-5428,InChI=1S/3O.Sr.Ti/q;2*-1;+2;,-6.5279993,O[Ti]([O-])=O,0.894354023,G4,A,None,None,Negative
A-5429,InChI=1S/C7H14ClNO/c8-2-1-3-9-4-6-10-7-5-9/h1-7H2,0.786089298,ClCCCN1CCOCC1,0,G1,A,None,None,Uncharged
A-5431,InChI=1S/3NO3.Y/c3*2-1(3)4;/q3*-1;+3,0.545324138,[O-][N+]([O-])=O,0.169159288,G5,A,None,None,Negative
A-5432,"InChI=1S/C10H10N2O4/c1-6-4-8(13)12(3-2-9(14)15)10(16)7(6)5-11/h4,13H,2-3H2,1H3,(H,14,15)",-1.443654068,CC1=C(C#N)C(=O)N(CCC([O-])=O)C(O)=C1,0,G1,A,None,None,Negative
A-5433,"InChI=1S/C10H12N2O5/c1-5-4-6(13)12(3-2-7(14)15)10(17)8(5)9(11)16/h4,13H,2-3H2,1H3,(H2,11,16)(H,14,15)",-1.602448873,CC1=C(C(N)=O)C(=O)N(CCC([O-])=O)C(O)=C1,0,G1,A,None,None,Negative
A-5437,"InChI=1S/C14H28N2O3/c1-2-3-4-5-6-10-13(17)16-11-8-7-9-12(15)14(18)19/h12H,2-11,15H2,1H3,(H,16,17)(H,18,19)/t12-/m0/s1",0.057570824,CCCCCCCC(=O)NCCCCC([NH3+])C([O-])=O,0,G1,A,None,None,Zwitterion
A-5439,"InChI=1S/4Na.H4O7P2/c;;;;1-8(2,3)7-9(4,5)6/h;;;;(H2,1,2,3)(H2,4,5,6)/q4*+1;/p-4",-0.194271049,OP([O-])(=O)OP([O-])([O-])=O,0.272994362,G5,A,None,None,Negative
A-5440,"InChI=1S/C2H5O6P.3Na/c3-2(4)1-9(6,7)8-5;;;/h5H,1H2,(H,3,4)(H,6,7);;;/q;3*+1/p-3",0.301076949,OOP([O-])(=O)CC([O-])=O,0,G1,A,None,None,Negative
A-5442,"InChI=1S/C21H25N.ClH/c1-21(2,3)15-8-5-9-16-22(4)17-19-13-10-12-18-11-6-7-14-20(18)19;/h5-7,9-14H,16-17H2,1-4H3;1H/b9-5+;",-1.719860075,C[NH+](CC=CC#CC(C)(C)C)CC1=CC=CC2=CC=CC=C12,0.015097393,G3,A,None,None,Positive
A-5443,"InChI=1S/C29H26FN7O11S3.K.Na/c30-27-35-28(37-29(36-27)34-18-11-15(49(40,41)42)9-10-20(18)50(43,44)45)33-14-7-5-13(6-8-14)32-19-12-21(51(46,47)48)24(31)23-22(19)25(38)16-3-1-2-4-17(16)26(23)39;;/h1-4,9-14,32H,5-8,31H2,(H,40,41,42)(H,43,44,45)(H,46,47,48)(H2,33,34,35,36,37);;/q;2*+1/p-3",-0.75694657,NC1=C(C=C(NC2CCC(CC2)NC2=NC(F)=NC(NC3=CC(=CC=C3S([O-])(=O)=O)S([O-])(=O)=O)=N2)C2=C1C(=O)C1=CC=CC=C1C2=O)S([O-])(=O)=O,0,G1,A,None,None,Negative
A-5444,"InChI=1S/C35H46N5O4.ClH/c1-7-38(8-2)32-16-12-28(13-17-32)24-30(26-36)34(41)43-22-11-20-40(5,6)21-23-44-35(42)31(27-37)25-29-14-18-33(19-15-29)39(9-3)10-4;/h12-19,24-25H,7-11,20-23H2,1-6H3;1H/q+1;/p-1/b30-24+,31-25+;",-0.803618922,CCN(CC)C1=CC=C(C=C(C#N)C(=O)OCCC[N+](C)(C)CCOC(=O)C(=CC2=CC=C(C=C2)N(CC)CC)C#N)C=C1,0,G1,A,None,None,Positive
A-5445,"InChI=1S/C2HF6NO4S2/c3-1(4,5)14(10,11)9-15(12,13)2(6,7)8/h9H",0.454144176,FC(F)(F)S(=O)(=O)[N-]S(=O)(=O)C(F)(F)F,0,G1,A,None,None,Negative
A-5446,"InChI=1S/C16H13ClN4O8S2.Cr.Na/c1-8-14(19-18-12-5-9(17)6-13(15(12)22)31(27,28)29)16(23)21(20-8)10-3-2-4-11(7-10)30(24,25)26;;/h2-7,22-23H,1H3,(H,24,25,26)(H,27,28,29);;/q;+3;+1/p-4",-1.133167485,CC1=C(N=NC2=CC(Cl)=CC(=C2O)S([O-])(=O)=O)C(=O)N([N-]1)C1=CC=CC(=C1)S([O-])(=O)=O,0,G1,A,None,None,Negative
A-5450,"InChI=1S/C20H40O2/c1-2-3-4-5-6-7-8-9-10-11-12-13-14-15-16-17-19-22-20-18-21/h9-10,21H,2-8,11-20H2,1H3/b10-9-",-2.494902829,CCCCCCCCC=CCCCCCCCCOCCO,0,G1,A,None,None,Uncharged
A-5451,"InChI=1S/C19H21N3O3/c1-19(2,3)13-10-12(8-9-17(23)24)11-16(18(13)25)22-20-14-6-4-5-7-15(14)21-22/h4-7,10-11,25H,8-9H2,1-3H3,(H,23,24)",-5.53070544,CC(C)(C)C1=CC(CCC([O-])=O)=CC(N2N=C3C=CC=CC3=N2)=C1O,0,G1,A,None,None,Negative
A-5456,"InChI=1S/C21H42O5/c1-2-3-4-11-14-19(23)15-12-9-7-5-6-8-10-13-16-21(25)26-18-20(24)17-22/h19-20,22-24H,2-18H2,1H3",-3.397432456,CCCCCCC(O)CCCCCCCCCCC(=O)OCC(O)CO,0,G1,A,None,None,Uncharged
A-5457,"InChI=1S/C31H38N2O3/c1-8-32(9-2)26-18-28-24(16-20(26)5)30(22-14-12-13-15-23(22)31(34)35-7)25-17-21(6)27(19-29(25)36-28)33(10-3)11-4/h12-19,28H,8-11H2,1-7H3/t28-/m0/s1",-7.687222082,CCN(CC)C1=C(C)C=C2C(OC3C=C([NH+](CC)CC)C(C)=CC3=C2C2=CC=CC=C2C(=O)OC)=C1,0,G1,A,None,None,Positive
A-5458,"InChI=1S/C29H50N2O8/c1-5-36-26(32)18-24(28(34)38-7-3)30-22-13-9-20(10-14-22)17-21-11-15-23(16-12-21)31-25(29(35)39-8-4)19-27(33)37-6-2/h20-25,30-31H,5-19H2,1-4H3",-3.744077739,CCOC(=O)CC(NC1CCC(CC2CCC(CC2)NC(CC(=O)OCC)C(=O)OCC)CC1)C(=O)OCC,0,G1,A,None,None,Uncharged
A-5459,"InChI=1S/C16H34/c1-13(10-14(2,3)4)11-16(8,9)12-15(5,6)7/h13H,10-12H2,1-9H3",-3.354968489,CC(CC(C)(C)C)CC(C)(C)CC(C)(C)C,0,G1,A,None,None,Uncharged
A-5462,"InChI=1S/C13H18N2O3/c1-10(16)15-12(9-18-2)13(17)14-8-11-6-4-3-5-7-11/h3-7,12H,8-9H2,1-2H3,(H,14,17)(H,15,16)",-3.398457379,COCC(NC(C)=O)C(=O)NCC1=CC=CC=C1,0,G1,A,None,None,Uncharged
A-5464,"InChI=1S/C10H22O3/c1-4-5-6-12-8-10(3)13-7-9(2)11/h9-11H,4-8H2,1-3H3",-0.653059623,CCCCOCC(C)OCC(C)O,0.013429811,G3,A,None,None,Uncharged
A-5465,"InChI=1S/C19H38O2/c1-2-3-4-5-6-7-8-9-10-11-12-13-14-15-16-17-18-19(20)21/h2-18H2,1H3,(H,20,21)",-3.775990335,CCCCCCCCCCCCCCCCCCC([O-])=O,0,G1,A,None,None,Negative
A-5468,"InChI=1S/C7H16O/c1-5-7(3,4)8-6-2/h5-6H2,1-4H3",-1.471935011,CCOC(C)(C)CC,0.495582495,G3,A,None,None,Uncharged
A-5469,"InChI=1S/C12H18O/c1-10(9-13)8-11(2)12-6-4-3-5-7-12/h3-7,10-11,13H,8-9H2,1-2H3",-2.346916077,CC(CO)CC(C)C1=CC=CC=C1,0,G1,A,None,None,Uncharged
A-5473,"InChI=1S/C20H13NO4/c21-18-15(25-11-6-2-1-3-7-11)10-14(22)16-17(18)20(24)13-9-5-4-8-12(13)19(16)23/h1-10,22H,21H2",-4.219226833,NC1=C(OC2=CC=CC=C2)C=C(O)C2=C1C(=O)C1=CC=CC=C1C2=O,0,G1,A,None,None,Uncharged
A-5474,"InChI=1S/C32H22N4O2/c1-3-35-29-19-9-5-7-11-21(19)31(37)23-13-17(15-25(33-35)27(23)29)18-14-24-28-26(16-18)34-36(4-2)30(28)20-10-6-8-12-22(20)32(24)38/h5-16H,3-4H2,1-2H3",-4.393183723,CCN1N=C2C=C(C=C3C2=C1C1=CC=CC=C1C3=O)C1=CC2=NN(CC)C3=C2C(=C1)C(=O)C1=CC=CC=C31,0,G1,A,None,None,Uncharged
A-5475,"InChI=1S/C42H18N2O6/c45-37-17-7-1-3-9-19(17)39(47)29-25(37)15-13-23-27-28-24-14-16-26-30(40(48)20-10-4-2-8-18(20)38(26)46)34(24)44-36(28)32-31(35(27)43-33(23)29)41(49)21-11-5-6-12-22(21)42(32)50/h1-16,43-44H",-4.509615108,O=C1C2=CC=CC=C2C(=O)C2=C1C=CC1=C2NC2=C1C1=C(NC3=C1C=CC1=C3C(=O)C3=CC=CC=C3C1=O)C1=C2C(=O)C2=CC=CC=C2C1=O,0,G1,A,None,None,Uncharged
A-5477,InChI=1S/C34H15NO4/c36-33-21-7-3-1-5-16(21)18-9-12-23-28-19(10-13-24(33)29(18)28)20-11-14-25-30-26(15-27(35(38)39)31(23)32(20)30)17-6-2-4-8-22(17)34(25)37/h1-15H,-4.399238344,[O-][N+](=O)C1=CC2=C3C(=CC=C4C5=C6C(=CC=C7C8=CC=CC=C8C(=O)C(C=C5)=C67)C1=C34)C(=O)C1=CC=CC=C21,0,G1,A,None,Non Valid pH,PureChargeSeparation
A-5478,"InChI=1S/C16H19N3O5S/c1-4-24-13-7-5-12(6-8-13)17-15-10-9-14(11-16(15)19(20)21)25(22,23)18(2)3/h5-11,17H,4H2,1-3H3",-4.261751621,CCOC1=CC=C(NC2=CC=C(C=C2[N+]([O-])=O)S(=O)(=O)N(C)C)C=C1,0,G1,A,None,None,PureChargeSeparation
A-5479,"InChI=1S/C42H23N3O6/c46-37-23-15-7-9-17-25(23)39(48)33-31(37)29(43-41(50)21-11-3-1-4-12-21)19-27-28-20-30(44-42(51)22-13-5-2-6-14-22)32-34(36(28)45-35(27)33)40(49)26-18-10-8-16-24(26)38(32)47/h1-20,45H,(H,43,50)(H,44,51)",-4.522223117,O=C(NC1=CC2=C(NC3=C2C=C(NC(=O)C2=CC=CC=C2)C2=C3C(=O)C3=CC=CC=C3C2=O)C2=C1C(=O)C1=CC=CC=C1C2=O)C1=CC=CC=C1,0,G1,A,None,None,Uncharged
A-5480,InChI=1S/C30H12Br2O2/c31-22-10-9-16-21-12-14-5-7-18-25-20(15-3-1-2-4-17(15)29(18)33)11-13-6-8-19(26(21)24(13)23(14)25)30(34)27(16)28(22)32/h1-12H,-4.450427718,BrC1=CC=C2C3=CC4=C5C6=C(C=CC(C(=O)C2=C1Br)=C36)C=C1C2=CC=CC=C2C(=O)C(C=C4)=C51,0,G1,A,None,None,Uncharged
A-5483,"InChI=1S/C17H27NO2/c1-18(2)13-16(17(19)11-5-4-6-12-17)14-7-9-15(20-3)10-8-14/h7-10,16,19H,4-6,11-13H2,1-3H3",0.256718745,COC1=CC=C(C=C1)C(C[NH+](C)C)C1(O)CCCCC1,0.651849345,G4,A,None,None,Positive
A-5485,"InChI=1S/3C20H13N3O7S.2Cr.2Na/c3*24-16-8-5-11-3-1-2-4-13(11)19(16)21-22-20-14-7-6-12(23(26)27)9-15(14)18(10-17(20)25)31(28,29)30;;;;/h3*1-10,21,24H,(H,28,29,30);;;;/q;;;;;2*+1/p-2/b3*22-20+;;;;",-5.166184625,OC1=C(NN=C2C(=O)C=C(C3=CC(=CC=C23)[N+]([O-])=O)S([O-])(=O)=O)C2=CC=CC=C2C=C1,0,G1,A,None,None,Negative
A-5487,"InChI=1S/C15H28O2/c1-3-5-6-7-8-9-10-11-12-13-14-17-15(16)4-2/h4H,2-3,5-14H2,1H3",-4.380910978,CCCCCCCCCCCCOC(=O)C=C,0,G1,A,None,None,Uncharged
A-5488,InChI=1S/Al.3O.Y/q+3;3*-2;+3,-4.214539206,O.O.O.[Al+3].[Y+3],0,G1,A,None,None,Uncharged
A-5489,InChI=1S/3HI.Rh/h3*1H;/q;;;+3/p-3,-4.684502457,[Rh+3].[I-].[I-].[I-],0,G1,A,None,None,Negative
A-5490,"InChI=1S/C17H32O2/c1-3-5-6-7-8-9-10-11-12-13-14-15-16-19-17(18)4-2/h4H,2-3,5-16H2,1H3",-4.428848848,CCCCCCCCCCCCCCOC(=O)C=C,0,G1,A,None,None,Uncharged
A-5491,"InChI=1S/C9H2Cl6O3/c10-3-4(11)8(13)2-1(5(16)18-6(2)17)7(3,12)9(8,14)15/h1-2H",-5.171234853,ClC1=C(Cl)C2(Cl)C3C(C(=O)OC3=O)C1(Cl)C2(Cl)Cl,1.150080268,G2,A,None,None,Uncharged
A-5493,"InChI=1S/C23H25ClN6O10/c1-13(31)25-18-11-20(28(5-7-39-14(2)32)6-8-40-15(3)33)22(38-4)12-19(18)26-27-23-17(24)9-16(29(34)35)10-21(23)30(36)37/h9-12H,5-8H2,1-4H3,(H,25,31)",-5.46309979,COC1=CC(N=NC2=C(Cl)C=C(C=C2[N+]([O-])=O)[N+]([O-])=O)=C(NC(C)=O)C=C1N(CCOC(C)=O)CCOC(C)=O,1.292513326,G2,A,None,None,PureChargeSeparation
A-5495,"InChI=1S/C8H8N2O2S/c1-4-5(3-9)7(10)13-6(4)8(11)12-2/h10H2,1-2H3",-4.991737621,COC(=O)C1=C(C)C(C#N)=C(N)S1,0,G1,A,None,None,Uncharged
A-5496,"InChI=1S/C20H43O3P/c1-4-5-6-7-8-9-10-11-12-13-14-15-16-17-18-19-20-24(21,22-2)23-3/h4-20H2,1-3H3",-5.529966163,CCCCCCCCCCCCCCCCCCP(=O)(OC)OC,0,G1,A,None,None,Uncharged
A-5497,"InChI=1S/C21H41NO2/c1-3-4-5-6-7-8-9-10-11-12-13-14-15-16-17-18-21(24)22-19-20(2)23/h10-11,20,23H,3-9,12-19H2,1-2H3,(H,22,24)/b11-10-",-5.530921641,CCCCCCCCC=CCCCCCCCC(=O)NCC(C)O,0,G1,A,None,None,Uncharged
A-5498,"InChI=1S/Al.H5O10P3/c;1-11(2,3)9-13(7,8)10-12(4,5)6/h;(H,7,8)(H2,1,2,3)(H2,4,5,6)/q+3;/p-5",-5.668842338,OP([O-])(=O)OP([O-])(=O)OP([O-])([O-])=O,0.570069966,G4,A,None,None,Negative
A-5499,"InChI=1S/C26H32O4/c1-23(2)15-26(7,18-11-8-16(9-12-18)21(27)24(3,4)29)19-13-10-17(14-20(19)23)22(28)25(5,6)30/h8-14,29-30H,15H2,1-7H3",-5.93729046,CC(C)(O)C(=O)C1=CC=C(C=C1)C1(C)CC(C)(C)C2=CC(=CC=C12)C(=O)C(C)(C)O,0,G1,A,None,None,Uncharged
A-5500,"InChI=1S/C26H32O4/c1-23(2)15-26(7,18-11-8-16(9-12-18)21(27)24(3,4)29)20-14-17(10-13-19(20)23)22(28)25(5,6)30/h8-14,29-30H,15H2,1-7H3",-5.963849488,CC(C)(O)C(=O)C1=CC=C(C=C1)C1(C)CC(C)(C)C2=CC=C(C=C12)C(=O)C(C)(C)O,0,G1,A,None,None,Uncharged
A-5505,"InChI=1S/C15H24/c1-6-14(4)10-8-12-15(5)11-7-9-13(2)3/h6,9,12H,1,4,7-8,10-11H2,2-3,5H3/b15-12+",-6.310389519,CC(C)=CCCC(C)=CCCC(=C)C=C,0,G1,A,None,None,Uncharged
A-5506,"InChI=1S/C38H40O8P2/c1-25-14-9-15-26(2)35(25)43-47(39,44-36-27(3)16-10-17-28(36)4)41-33-22-13-23-34(24-33)42-48(40,45-37-29(5)18-11-19-30(37)6)46-38-31(7)20-12-21-32(38)8/h9-24H,1-8H3",-6.836753134,CC1=CC=CC(C)=C1OP(=O)(OC1=CC(OP(=O)(OC2=C(C)C=CC=C2C)OC2=C(C)C=CC=C2C)=CC=C1)OC1=C(C)C=CC=C1C,0,G1,A,None,None,Uncharged
A-5507,"InChI=1S/C16H28O/c1-2-3-4-13-5-7-14(8-6-13)15-9-11-16(17)12-10-15/h13-15H,2-12H2,1H3",-6.373645635,CCCCC1CCC(CC1)C1CCC(=O)CC1,0,G1,A,None,None,Uncharged
A-5509,"InChI=1S/4C8H17.Sn/c4*1-3-5-7-8-6-4-2;/h4*1,3-8H2,2H3;",-6.757097539,CCCCCCCC[Sn](CCCCCCCC)(CCCCCCCC)CCCCCCCC,0,G1,A,None,None,Uncharged
A-5510,InChI=1S/3C18H15P.Cl.Rh/c3*1-4-10-16(11-5-1)19(17-12-6-2-7-13-17)18-14-8-3-9-15-18;;/h3*1-15H;;,-7.012009544,C1=CC=C(C=C1)P(C1=CC=CC=C1)C1=CC=CC=C1,0,G1,A,None,None,Uncharged
A-5511,"InChI=1S/C30H52O3S/c1-23(2)17-15-13-11-9-10-12-14-16-18-33-27(31)22-34-21-24-19-25(29(3,4)5)28(32)26(20-24)30(6,7)8/h19-20,23,32H,9-18,21-22H2,1-8H3",-6.789589525,CC(C)CCCCCCCCCCOC(=O)CSCC1=CC(=C(O)C(=C1)C(C)(C)C)C(C)(C)C,0,G1,A,None,None,Uncharged
A-5512,InChI=1S/2C18H15P.2ClH.Pd/c2*1-4-10-16(11-5-1)19(17-12-6-2-7-13-17)18-14-8-3-9-15-18;;;/h2*1-15H;2*1H;/q;;;;+2/p-2,-7.026737494,C1=CC=C(C=C1)P(C1=CC=CC=C1)C1=CC=CC=C1,0,G1,A,None,None,Uncharged
A-5513,"InChI=1S/C25H18Cl2N2/c26-21-13-15(9-11-23(21)28)25(16-10-12-24(29)22(27)14-16)19-7-3-1-5-17(19)18-6-2-4-8-20(18)25/h1-14H,28-29H2",-6.904485627,NC1=CC=C(C=C1Cl)C1(C2=CC=CC=C2C2=CC=CC=C12)C1=CC=C(N)C(Cl)=C1,0,G1,A,None,None,Uncharged
A-5515,InChI=1S/C18H6Cl4N2O/c19-13-11-12(14(20)16(22)15(13)21)18(25)24-9-6-2-4-7-3-1-5-8(10(7)9)23-17(11)24/h1-6H,-7.133614478,ClC1=C2C(=O)N3C(=NC4=CC=CC5=CC=CC3=C45)C2=C(Cl)C(Cl)=C1Cl,0,G1,A,None,None,Uncharged
A-5516,"InChI=1S/C18H11NO3/c20-14-9-10-5-1-4-8-13(10)19-16(14)15-17(21)11-6-2-3-7-12(11)18(15)22/h1-9,19-20H",-7.046360074,OC1=CC2=CC=CC=C2[NH+]=C1[C-]1C(=O)C2=CC=CC=C2C1=O,0,G1,A,None,None,Zwitterion
A-5519,"InChI=1S/C42H57N3O6/c1-22-16-31(40(7,8)9)34(46)25(4)28(22)19-43-37(49)44(20-29-23(2)17-32(41(10,11)12)35(47)26(29)5)39(51)45(38(43)50)21-30-24(3)18-33(42(13,14)15)36(48)27(30)6/h16-18,46-48H,19-21H2,1-15H3",-7.544026474,CC1=CC(=C(O)C(C)=C1CN1C(=O)N(CC2=C(C)C=C(C(O)=C2C)C(C)(C)C)C(=O)N(CC2=C(C)C=C(C(O)=C2C)C(C)(C)C)C1=O)C(C)(C)C,0,G1,A,None,None,Uncharged
A-5520,"InChI=1S/C36H38N2O2/c1-7-23-17-21(5)18-24(8-2)33(23)37-29-15-16-30(38-34-25(9-3)19-22(6)20-26(34)10-4)32-31(29)35(39)27-13-11-12-14-28(27)36(32)40/h11-20,37-38H,7-10H2,1-6H3",-7.423828912,CCC1=CC(C)=CC(CC)=C1NC1=CC=C(NC2=C(CC)C=C(C)C=C2CC)C2=C1C(=O)C1=CC=CC=C1C2=O,0,G1,A,None,None,Uncharged
A-5521,"InChI=1S/C32H30N2O2/c1-5-21-13-9-11-19(3)29(21)33-25-17-18-26(34-30-20(4)12-10-14-22(30)6-2)28-27(25)31(35)23-15-7-8-16-24(23)32(28)36/h7-18,33-34H,5-6H2,1-4H3",-7.375301399,CCC1=CC=CC(C)=C1NC1=CC=C(NC2=C(C)C=CC=C2CC)C2=C1C(=O)C1=CC=CC=C1C2=O,0,G1,A,None,None,Uncharged
A-5522,InChI=1S/C22H12N2O/c25-22-16-10-2-6-13-5-1-9-15(19(13)16)21-23-17-11-3-7-14-8-4-12-18(20(14)17)24(21)22/h1-12H,-7.204596088,O=C1N2C3=C4C(C=CC=C4N=C2C2=CC=CC4=CC=CC1=C24)=CC=C3,0.129818655,G3,A,None,None,Uncharged
A-5523,"InChI=1S/C25H44OS2/c1-4-6-8-10-12-14-16-27-20-23-18-22(3)25(26)24(19-23)21-28-17-15-13-11-9-7-5-2/h18-19,26H,4-17,20-21H2,1-3H3",-7.327113617,CCCCCCCCSCC1=CC(C)=C(O)C(CSCCCCCCCC)=C1,1,G2,A,None,None,Uncharged
A-5524,"InChI=1S/C33H56N4OS2/c1-9-11-13-15-17-19-21-39-30-35-29(36-31(37-30)40-22-20-18-16-14-12-10-2)34-25-23-26(32(3,4)5)28(38)27(24-25)33(6,7)8/h23-24,38H,9-22H2,1-8H3,(H,34,35,36,37)",-7.469064653,CCCCCCCCSC1=NC(SCCCCCCCC)=NC(NC2=CC(=C(O)C(=C2)C(C)(C)C)C(C)(C)C)=N1,0.849485002,G2,A,None,None,Uncharged
A-5526,"InChI=1S/C18H36O2/c1-3-4-5-6-7-8-9-10-11-12-13-14-15-16-17-20-18(2)19/h3-17H2,1-2H3",-7.397152994,CCCCCCCCCCCCCCCCOC(C)=O,0,G1,A,None,None,Uncharged
A-5529,"InChI=1S/C20H38O4/c1-5-9-11-17(7-3)15-23-19(21)13-14-20(22)24-16-18(8-4)12-10-6-2/h17-18H,5-16H2,1-4H3",-7.835715931,CCCCC(CC)COC(=O)CCC(=O)OCC(CC)CCCC,0,G1,A,None,Cosolvent Buffer,Uncharged
A-5530,"InChI=1S/C24H52O4Si/c1-9-21(10-2)17-25-29(26-18-22(11-3)12-4,27-19-23(13-5)14-6)28-20-24(15-7)16-8/h21-24H,9-20H2,1-8H3",-8.190644916,CCC(CC)CO[Si](OCC(CC)CC)(OCC(CC)CC)OCC(CC)CC,0,G1,A,None,None,Uncharged
A-5531,"InChI=1S/C29H44O2/c1-26(2,3)20-14-18(15-21(24(20)30)27(4,5)6)13-19-16-22(28(7,8)9)25(31)23(17-19)29(10,11)12/h14-17,30-31H,13H2,1-12H3",-8.62805056,CC(C)(C)C1=CC(CC2=CC(=C(O)C(=C2)C(C)(C)C)C(C)(C)C)=CC(=C1O)C(C)(C)C,1.155435599,G4,A,None,None,Uncharged
A-5533,"InChI=1S/C9H18O2.2C8H16O2.C5H12O4/c1-2-3-4-5-6-7-8-9(10)11;1-3-5-6-7(4-2)8(9)10;1-2-3-4-5-6-7-8(9)10;6-1-5(2-7,3-8)4-9/h2-8H2,1H3,(H,10,11);7H,3-6H2,1-2H3,(H,9,10);2-7H2,1H3,(H,9,10);6-9H,1-4H2",-8.765531466,CCCCCCCCC([O-])=O,0,G1,A,None,Cosolvent Buffer,Negative
A-5536,"InChI=1S/C16H30O4/c1-3-5-7-9-11-13-15(17)19-20-16(18)14-12-10-8-6-4-2/h3-14H2,1-2H3",-7.61189317,CCCCCCCC(=O)OOC(=O)CCCCCCC,0,G1,A,None,Unstable,Uncharged
A-5537,"InChI=1S/C12H18Br6/c13-7-1-8(14)3-10(16)5-12(18)6-11(17)4-9(15)2-7/h7-12H,1-6H2",-6.9904282,BrC1CC(Br)CC(Br)CC(Br)CC(Br)CC(Br)C1,0.642712461,G2,A,None,None,Uncharged
A-5538,InChI=1S/C14H10/c1-2-6-12-10-14-8-4-3-7-13(14)9-11(12)5-1/h1-10H,-6.44481058,C1=CC2=CC3=CC=CC=C3C=C2C=C1,0.109537344,G5,A,None,None,Uncharged