ID,InChI,Solubility,SMILEScurated,SD,Group,Dataset,Composition,Error,Charge
A-1513,"InChI=1S/C5H10O3/c1-3-7-5(6)8-4-2/h3-4H2,1-2H3",-0.798209708,CCOC(=O)OCC,0,G1,A,mono-constituent,None,Uncharged
A-1515,"InChI=1S/C13H18O/c1-5-7-11(14)12-10(2)8-6-9-13(12,3)4/h5-8H,9H2,1-4H3/b7-5+",-3.005248988,CC=CC(=O)C1=C(C)C=CCC1(C)C,0,G1,A,mono-constituent,None,Uncharged
A-1516,InChI=1S/C6H3Cl2NO2/c7-4-1-2-6(9(10)11)5(8)3-4/h1-3H,-3.009145641,[O-][N+](=O)C1=CC=C(Cl)C=C1Cl,0.952044704,G4,A,mono-constituent,None,PureChargeSeparation
A-1517,"InChI=1S/C10H14O/c1-7(2)9-5-4-8(3)10(11)6-9/h4,9H,1,5-6H2,2-3H3/t9-/m0/s1",-1.90265366,CC(=C)C1CC=C(C)C(=O)C1,0,G1,A,mono-constituent,None,Uncharged
A-1518,"InChI=1S/C8H19O3P/c1-2-3-4-5-6-7-8-12(9,10)11/h2-8H2,1H3,(H2,9,10,11)",-3.014809552,CCCCCCCCP(O)([O-])=O,1.863267864,G2,A,mono-constituent,None,Negative
A-1519,"InChI=1S/C19H26O3/c1-18-7-5-12(20)9-11(18)3-4-13-14(18)6-8-19(2)16(22)10-15(21)17(13)19/h9,13-15,17,21H,3-8,10H2,1-2H3/t13-,14+,15?,17-,18+,19-/m1/s1",-2.213096942,CC12CCC3C(CCC4=CC(=O)CCC34C)C1C(O)CC2=O,0.363625997,G3,A,None,None,Uncharged
A-1520,"InChI=1S/C8H10ClNO2/c1-11-7-4-6(10)8(12-2)3-5(7)9/h3-4H,10H2,1-2H3",-3.006121292,COC1=CC(Cl)=C(OC)C=C1N,0,G1,A,mono-constituent,None,Uncharged
A-1521,InChI=1S/Pb,-3.049218023,[Pb],0,G1,A,mono-constituent,None,Uncharged
A-1523,"InChI=1S/C9H18O2/c1-4-5-9(10)11-7-6-8(2)3/h8H,4-7H2,1-3H3",-2.932852123,CCCC(=O)OCCC(C)C,0,G1,A,mono-constituent,Non Valid pH,Uncharged
A-1524,"InChI=1S/C9H19NO3S/c11-14(12,13)8-4-7-10-9-5-2-1-3-6-9/h9-10H,1-8H2,(H,11,12,13)",-3.080206763,[O-]S(=O)(=O)CCC[NH2+]C1CCCCC1,0,G1,A,mono-constituent,Non Valid pH,Zwitterion
A-1528,"InChI=1S/C14H18O/c1-2-3-5-10-14(12-15)11-13-8-6-4-7-9-13/h4,6-9,11-12H,2-3,5,10H2,1H3/b14-11-",-3.046658418,CCCCCC(C=O)=CC1=CC=CC=C1,0,G1,A,mono-constituent,None,Uncharged
A-1532,InChI=1S/C3H6BrCl/c4-2-1-3-5/h1-3H2,-1.940151412,ClCCCBr,0.451026763,G5,A,mono-constituent,None,Uncharged
A-1533,"InChI=1S/C2H3Cl3O2/c3-2(4,5)1(6)7/h1,6-7H",1.037167298,OC(O)C(Cl)(Cl)Cl,0.47518564,G5,A,mono-constituent,None,Uncharged
A-1534,"InChI=1S/C18H16N2O8S2.2Na/c1-10-7-14(16(28-2)9-17(10)30(25,26)27)19-20-18-13-5-4-12(29(22,23)24)8-11(13)3-6-15(18)21;;/h3-9,19H,1-2H3,(H,22,23,24)(H,25,26,27);;/q;2*+1/p-2/b20-18+;;",-0.440585514,COC1=CC(=C(C)C=C1NN=C1C(=O)C=CC2=CC(=CC=C12)S([O-])(=O)=O)S([O-])(=O)=O,0.043575088,G3,A,mono-constituent,None,Negative
A-1538,"InChI=1S/C8H6O5/c9-6-2-4(7(10)11)1-5(3-6)8(12)13/h1-3,9H,(H,10,11)(H,12,13)",-2.005111367,OC1=CC(=CC(=C1)C([O-])=O)C([O-])=O,0.238444316,G3,A,mono-constituent,None,Negative
A-1539,"InChI=1S/C40H40N12O8S2.2Na/c53-61(54,55)33-25-31(43-37-45-35(41-29-7-3-1-4-8-29)47-39(49-37)51-17-21-59-22-18-51)15-13-27(33)11-12-28-14-16-32(26-34(28)62(56,57)58)44-38-46-36(42-30-9-5-2-6-10-30)48-40(50-38)52-19-23-60-24-20-52;;/h1-16,25-26H,17-24H2,(H,53,54,55)(H,56,57,58)(H2,41,43,45,47,49)(H2,42,44,46,48,50);;/q;2*+1/p-2/b12-11+;;",-2.710838239,[O-]S(=O)(=O)C1=CC(NC2=NC(NC3=CC=CC=C3)=NC(=N2)N2CCOCC2)=CC=C1C=CC1=CC=C(NC2=NC(NC3=CC=CC=C3)=NC(=N2)N2CCOCC2)C=C1S([O-])(=O)=O,0.011740548,G3,A,mono-constituent,Non Valid pH,Negative
A-1540,"InChI=1S/C12H22O4/c1-9(2)15-11(13)7-5-6-8-12(14)16-10(3)4/h9-10H,5-8H2,1-4H3",-3.107028976,CC(C)OC(=O)CCCCC(=O)OC(C)C,0,G1,A,mono-constituent,None,Uncharged
A-1541,"InChI=1S/C13H24O/c1-5-6-7-8-13(4)10-9-12(2,3)11(13)14/h5-10H2,1-4H3",-4.016533711,CCCCCC1(C)CCC(C)(C)C1=O,0,G1,A,mono-constituent,Non Valid pH,Uncharged
A-1542,"InChI=1S/C12H24O/c13-12-10-8-6-4-2-1-3-5-7-9-11-12/h12-13H,1-11H2",-3.989117726,OC1CCCCCCCCCCC1,0.162799094,G3,A,mono-constituent,None,Uncharged
A-1543,"InChI=1S/C8H5F13O/c9-3(10,1-2-22)4(11,12)5(13,14)6(15,16)7(17,18)8(19,20)21/h22H,1-2H2",-4.287064023,OCCC(F)(F)C(F)(F)C(F)(F)C(F)(F)C(F)(F)C(F)(F)F,0,G1,A,mono-constituent,None,Uncharged
A-1544,"InChI=1S/C28H52N2O4/c1-25(2)17-29-18-26(3,4)23(25)33-21(31)15-13-11-9-10-12-14-16-22(32)34-24-27(5,6)19-30-20-28(24,7)8/h23-24,29-30H,9-20H2,1-8H3",-4.40774699,CC1(C)C[NH2+]CC(C)(C)C1OC(=O)CCCCCCCCC(=O)OC1C(C)(C)C[NH2+]CC1(C)C,0,G1,A,None,None,Positive
A-1545,"InChI=1S/C12H22O2/c1-6-10(2)8-7-9-12(4,5)14-11(3)13/h6,10H,1,7-9H2,2-5H3",-4.030164126,CC(CCCC(C)(C)OC(C)=O)C=C,0,G1,A,mono-constituent,None,Uncharged
A-1547,"InChI=1S/C16H28O4/c1-11(2)9-19-15(17)13-7-5-6-8-14(13)16(18)20-10-12(3)4/h11-14H,5-10H2,1-4H3",-4.19123514,CC(C)COC(=O)C1CCCCC1C(=O)OCC(C)C,0,G1,A,mono-constituent,Non Valid pH,Uncharged
A-1549,"InChI=1S/C12H20O2/c1-5-11(13)14-10-6-9(2)7-12(3,4)8-10/h5,9-10H,1,6-8H2,2-4H3",-4.030447085,CC1CC(CC(C)(C)C1)OC(=O)C=C,0,G1,A,mono-constituent,None,Uncharged
A-1550,"InChI=1S/C13H16O/c14-13(11-7-3-1-4-8-11)12-9-5-2-6-10-12/h1,3-4,7-8,12H,2,5-6,9-10H2",-4.014709735,O=C(C1CCCCC1)C1=CC=CC=C1,0,G1,A,mono-constituent,None,Uncharged
A-1553,"InChI=1S/C9H15Cl6O4P/c10-1-7(2-11)17-20(16,18-8(3-12)4-13)19-9(5-14)6-15/h7-9H,1-6H2",-4.376704974,ClCC(CCl)OP(=O)(OC(CCl)CCl)OC(CCl)CCl,0.206290267,G3,A,mono-constituent,None,Uncharged
A-1554,InChI=1S/C6H3Cl3/c7-4-2-1-3-5(8)6(4)9/h1-3H,-4.003482074,ClC1=CC=CC(Cl)=C1Cl,0.116476053,G5,A,mono-constituent,None,Uncharged
A-1555,"InChI=1S/2C16H14N4O7S.Ca/c2*1-10(21)15(16(22)17-11-5-3-2-4-6-11)19-18-13-8-7-12(28(25,26)27)9-14(13)20(23)24;/h2*2-9,15H,1H3,(H,17,22)(H,25,26,27);/q;;+2/p-2",-4.674562122,CC(=O)C(=N[N-]C1=CC=C(C=C1[N+]([O-])=O)S([O-])(=O)=O)C(=O)NC1=CC=CC=C1,0,G1,A,mono-constituent,None,Negative
A-1556,"InChI=1S/C10H12O4/c1-5-4-7(11)6(2)9(12)8(5)10(13)14-3/h4,11-12H,1-3H3",-4.037430925,COC(=O)C1=C(C)C=C(O)C(C)=C1O,0,G1,A,mono-constituent,None,Uncharged
A-1558,InChI=1S/HI.Na/h1H;/q;+1/p-1,1.07779604,[I-],0,G1,A,mono-constituent,None,Negative
A-1559,"InChI=1S/C12H10Cl2N2.2ClH/c13-9-5-7(1-3-11(9)15)8-2-4-12(16)10(14)6-8;;/h1-6H,15-16H2;2*1H",-3.26286953,NC1=CC=C(C=C1Cl)C1=CC=C(N)C(Cl)=C1,0,G1,A,None,None,Uncharged
A-1562,"InChI=1S/C10H18O/c1-8(2)10(11)6-4-9(3)5-7-10/h4,8,11H,5-7H2,1-3H3",-1.94099707,CC(C)C1(O)CCC(C)=CC1,0.32998735,G3,A,multi-constituent,None,Uncharged
A-1563,"InChI=1S/C7H14ClFN2.2BF4/c8-7-10-1-4-11(9,5-2-10)6-3-10;2*2-1(3,4)5/h1-7H2;;/q+2;2*-1",-0.303811902,F[N+]12CC[N+](CCl)(CC1)CC2,0,G1,A,mono-constituent,Multi-constituent Substances,Positive
A-1564,"InChI=1S/C8H9NO4/c1-12-6-3-4-8(13-2)7(5-6)9(10)11/h3-5H,1-2H3",-3.01732508,COC1=CC=C(OC)C(=C1)[N+]([O-])=O,0.04968746,G3,A,mono-constituent,None,PureChargeSeparation
A-1565,"InChI=1S/C8H12INO2/c1-2-3-6-10-8(11)12-7-4-5-9/h2-3,6-7H2,1H3,(H,10,11)",-3.203337363,CCCCNC(=O)OCC#CI,0.014253799,G5,A,mono-constituent,None,Uncharged
A-1569,"InChI=1S/C2H2N4O3/c7-2-3-1(4-5-2)6(8)9/h(H2,3,4,5,7)",-0.87862532,[O-][N+](=O)C1=NNC(=O)[N-]1,0,G1,A,mono-constituent,None,Negative
A-1570,"InChI=1S/C8H9N3O/c1-4-2-6-7(3-5(4)9)11-8(12)10-6/h2-3H,9H2,1H3,(H2,10,11,12)",-1.977138482,CC1=CC2=C(NC(=O)N2)C=C1N,0.127916623,G3,A,mono-constituent,None,Uncharged
A-1576,"InChI=1S/C8H18O2/c1-7(2,3)9-10-8(4,5)6/h1-6H3",-2.93204037,CC(C)(C)OOC(C)(C)C,0.116479815,G3,A,mono-constituent,Non Valid pH,Uncharged
A-1577,"InChI=1S/C11H12O2/c1-2-13-11(12)9-8-10-6-4-3-5-7-10/h3-9H,2H2,1H3/b9-8+",-3.013046764,CCOC(=O)C=CC1=CC=CC=C1,0.008723382,G3,A,mono-constituent,None,Uncharged
A-1578,"InChI=1S/C21H15NO6S.Na/c1-11-6-7-14(17(10-11)29(26,27)28)22-15-8-9-16(23)19-18(15)20(24)12-4-2-3-5-13(12)21(19)25;/h2-10,22-23H,1H3,(H,26,27,28);/q;+1/p-1",-2.402393281,CC1=CC=C(NC2=CC=C(O)C3=C2C(=O)C2=CC=CC=C2C3=O)C(=C1)S([O-])(=O)=O,0.383756067,G3,A,mono-constituent,None,Negative
A-1579,"InChI=1S/C7H5NOS/c9-7-5-3-1-2-4-6(5)10-8-7/h1-4H,(H,8,9)",-1.947289546,O=C1NSC2=CC=CC=C12,0.235013061,G5,A,mono-constituent,None,Uncharged
A-1585,"InChI=1S/C15H21NO2S/c1-15(2,16-8-10-18-11-9-16)14(17)12-4-6-13(19-3)7-5-12/h4-7H,8-11H2,1-3H3",-4.193381143,CSC1=CC=C(C=C1)C(=O)C(C)(C)N1CCOCC1,0,G1,A,mono-constituent,None,Uncharged
A-1587,"InChI=1S/C15H24O/c1-13(2)7-6-11(16)12-14(3,4)10-5-8-15(12,13)9-10/h10,12H,5-9H2,1-4H3",-4.097612213,CC1(C)C2CCC3(C2)C1C(=O)CCC3(C)C,0.078803927,G3,A,multi-constituent,None,Uncharged
A-1588,"InChI=1S/C13H26O3/c1-6-9-10-11(7-2)12(14)15-16-13(4,5)8-3/h11H,6-10H2,1-5H3",-4.116871778,CCCCC(CC)C(=O)OOC(C)(C)CC,0,G1,A,mono-constituent,Unstable,Uncharged
A-1591,"InChI=1S/C14H28O2/c1-15-14(16-2)12-10-8-6-4-3-5-7-9-11-13-14/h3-13H2,1-2H3",-4.125654352,COC1(CCCCCCCCCCC1)OC,0,G1,A,mono-constituent,None,Uncharged
A-1599,"InChI=1S/C4H2N4S6/c9-1-5-7-3(11-1)13-14-4-8-6-2(10)12-4/h(H,5,9)(H,6,10)",-3.252213315,S=C1NN=C(SSC2=N[N-]C(=S)S2)S1,0,G1,A,mono-constituent,None,Negative
A-1600,"InChI=1S/C9H18O/c1-3-4-5-6-7-8-9(2)10/h3-8H2,1-2H3",-2.930311379,CCCCCCCC(C)=O,0.173328719,G3,A,mono-constituent,None,Uncharged
A-1601,"InChI=1S/C7H6N2O4/c1-5-2-3-6(8(10)11)4-7(5)9(12)13/h2-4H,1H3",-3.040285322,CC1=CC=C(C=C1[N+]([O-])=O)[N+]([O-])=O,0.111434164,G5,A,None,None,PureChargeSeparation
A-1602,"InChI=1S/2C8H19O2PS2.Zn/c2*1-7(2)5-9-11(12,13)10-6-8(3)4;/h2*7-8H,5-6H2,1-4H3,(H,12,13);/q;;+2/p-2",-2.519248335,CC(C)COP([S-])(=S)OCC(C)C,0,G1,A,UVCB,None,Negative
A-1606,"InChI=1S/C9H12N2O4/c12-5-1-4-10-8-3-2-7(13)6-9(8)11(14)15/h2-3,6,10,12-13H,1,4-5H2",-2.11058971,OCCCNC1=CC=C(O)C=C1[N+]([O-])=O,0.025164139,G3,A,mono-constituent,None,PureChargeSeparation
A-1608,"InChI=1S/C15H24O3/c1-4-6-7-8-12-10-13(16)9-11(3)14(12)15(17)18-5-2/h9,12,14H,4-8,10H2,1-3H3",-3.187166345,CCCCCC1CC(=O)C=C(C)C1C(=O)OCC,0,G1,A,multi-constituent,None,Uncharged
A-1611,"InChI=1S/C19H19N5O3.ClH/c1-24(2,3)14-7-4-12-5-9-18(25)19(15(12)11-14)22-21-13-6-8-16(20)17(10-13)23(26)27;/h4-11H,1-3H3,(H2-,20,21,22,25);1H",-1.39724242,C[N+](C)(C)C1=CC=C2C=CC(=O)C(=NNC3=CC=C(N)C(=C3)[N+]([O-])=O)C2=C1,0,G1,A,None,None,Positive
A-1612,"InChI=1S/C8H10/c1-7-5-3-4-6-8(7)2/h3-6H,1-2H3",-2.81916776,CC1=CC=CC=C1C,0.032173366,G5,A,mono-constituent,None,Uncharged
A-1614,"InChI=1S/C8H10/c1-7-3-5-8(2)6-4-7/h3-6H,1-2H3",-2.81916776,CC1=CC=C(C)C=C1,0.032173366,G5,A,mono-constituent,None,Uncharged
A-1617,"InChI=1S/C8H9NO2/c10-7-5-3-1-2-4-6(5)8(11)9-7/h1-4H2,(H,9,10,11)",-1.974517726,O=C1NC(=O)C2=C1CCCC2,0,G1,A,mono-constituent,None,Uncharged
A-1619,"InChI=1S/C12H16O2/c1-10(2)12(13)14-9-8-11-6-4-3-5-7-11/h3-7,10H,8-9H2,1-2H3",-3.079764438,CC(C)C(=O)OCCC1=CC=CC=C1,0.039108444,G5,A,mono-constituent,None,Uncharged
A-1620,"InChI=1S/C13H20O/c1-10-6-5-9-13(3,4)12(10)8-7-11(2)14/h7-8H,5-6,9H2,1-4H3/b8-7+",-3.079863818,CC(=O)C=CC1=C(C)CCCC1(C)C,0.083044578,G5,A,mono-constituent,None,Uncharged
A-1623,"InChI=1S/C12H27N/c1-4-5-6-7-8-9-10-11-12-13(2)3/h4-12H2,1-3H3",-4.045287835,CCCCCCCCCC[NH+](C)C,0.195033693,G3,A,mono-constituent,None,Positive
A-1624,"InChI=1S/C11H23O4PS2/c1-6-13-11(12)7-8-18-16(17,14-9(2)3)15-10(4)5/h9-10H,6-8H2,1-5H3",-4.274778498,CCOC(=O)CCSP(=S)(OC(C)C)OC(C)C,0,G1,A,mono-constituent,None,Uncharged
A-1626,"InChI=1S/C14H20O/c15-7-2-1-4-10-8-11-9-14(10)13-6-3-5-12(11)13/h4,7,11-14H,1-3,5-6,8-9H2/b10-4+",-4.090187913,O=CCCC=C1CC2CC1C1CCCC21,0,G1,A,multi-constituent,None,Uncharged
A-1627,"InChI=1S/C9H20S/c1-4-5-6-7-8-9(2,3)10/h10H,4-8H2,1-3H3",-3.990160109,CCCCCCC(C)(C)S,0.194517551,G5,A,UVCB,None,Uncharged
A-1628,"InChI=1S/C11H20O2/c1-10(2)5-4-6-11(3)7-8-13-9-12/h5,9,11H,4,6-8H2,1-3H3",-4.055960832,CC(CCOC=O)CCC=C(C)C,0,G1,A,multi-constituent,None,Uncharged
A-1629,"InChI=1S/C11H15BrClO3PS/c1-3-7-18-17(14,15-4-2)16-11-6-5-9(12)8-10(11)13/h5-6,8H,3-4,7H2,1-2H3",-4.365622838,CCCSP(=O)(OCC)OC1=CC=C(Br)C=C1Cl,0.120166078,G3,A,None,None,Uncharged
A-1630,"InChI=1S/2C28H44O3S.Zn/c2*1-3-5-7-9-11-13-15-19-24-23-25-20-17-18-22-27(25)28(32(29,30)31)26(24)21-16-14-12-10-8-6-4-2;/h2*17-18,20,22-23H,3-16,19,21H2,1-2H3,(H,29,30,31);/q;;+2/p-2",-4.788424219,CCCCCCCCCC1=CC2=CC=CC=C2C(=C1CCCCCCCCC)S([O-])(=O)=O,0.034887221,G5,A,UVCB,None,Negative
A-1634,"InChI=1S/C11H22O/c1-3-4-5-6-7-8-9-11(2)10-12/h10-11H,3-9H2,1-2H3",-4.027084465,CCCCCCCCC(C)C=O,0.247425011,G3,A,mono-constituent,None,Uncharged
A-1635,"InChI=1S/C10H12O6/c1-15-9(13)5-3-8(12)6(4-7(5)11)10(14)16-2/h5-6H,3-4H2,1-2H3",-4.154195657,COC(=O)C1CC(=O)C(CC1=O)C(=O)OC,0,G1,A,None,None,Uncharged
A-1636,"InChI=1S/C15H16O2.C3H5ClO.C3H6O/c1-15(2,11-3-7-13(16)8-4-11)12-5-9-14(17)10-6-12;4-1-3-2-5-3;1-3-2-4-3/h3-10,16-17H,1-2H3;3H,1-2H2;3H,2H2,1H3",-4.374400038,CC(C)(C1=CC=C(O)C=C1)C1=CC=C(O)C=C1,0,G1,A,None,Cosolvent Buffer,Uncharged
A-1637,"InChI=1S/H2O3Se.Zn/c1-4(2)3;/h(H2,1,2,3);/q;+2/p-2",-4.079965434,[O-][Se]([O-])=O,0,G1,A,mono-constituent,None,Negative
A-1638,"InChI=1S/C4H8N4O3/c1-7-3-11-2-5-4(7)6-8(9)10/h2-3H2,1H3,(H,5,6)",-1.002292328,CN1COCNC1=N[N+]([O-])=O,0,G1,A,mono-constituent,None,PureChargeSeparation
A-1639,"InChI=1S/C10H12N4O5/c15-1-4-6(16)7(17)10(19-4)14-3-13-5-8(14)11-2-12-9(5)18/h2-4,6-7,10,15-17H,1H2,(H,11,12,18)",-1.229848644,OCC1OC(C(O)C1O)N1C=NC2=C1NC=NC2=O,0,G1,A,None,None,Uncharged
A-1640,"InChI=1S/C9H12O/c1-6-4-5-7(2)9(10)8(6)3/h4-5,10H,1-3H3",-1.935500888,CC1=CC=C(C)C(O)=C1C,0.023184371,G3,A,mono-constituent,None,Uncharged
A-1643,"InChI=1S/C8H10/c1-7-4-3-5-8(2)6-7/h3-6H,1-2H3",-2.832869038,CC1=CC(C)=CC=C1,0.075181238,G5,A,mono-constituent,None,Uncharged
A-1646,"InChI=1S/C10H19NO3/c1-2-3-4-5-6-7-9(12)11-8-10(13)14/h2-8H2,1H3,(H,11,12)(H,13,14)",-2.111537593,CCCCCCCC(=O)NCC([O-])=O,0,G1,A,mono-constituent,None,Negative
A-1647,"InChI=1S/C12H20O2/c1-8(13)14-10-11(2,3)9-5-6-12(10,4)7-9/h9-10H,5-7H2,1-4H3",-3.874596884,CC(=O)OC1C2(C)CCC(C2)C1(C)C,0,G1,A,mono-constituent,None,Uncharged
A-1648,InChI=1S/O2Si/c1-3-2,-3.602667578,O=[Si]=O,0.406944361,G5,A,mono-constituent,None,Uncharged
A-1650,"InChI=1S/C16H21NO4/c18-15(19)14(13-9-5-2-6-10-13)17-16(20)21-11-12-7-3-1-4-8-12/h1,3-4,7-8,13-14H,2,5-6,9-11H2,(H,17,20)(H,18,19)/t14-/m0/s1",-3.285433603,[O-]C(=O)C(NC(=O)OCC1=CC=CC=C1)C1CCCCC1,0,G1,A,mono-constituent,None,Negative
A-1651,"InChI=1S/C15H24O/c1-6-15(5,16)11-9-13-12(2)8-7-10-14(13,3)4/h6,9,11,16H,1,7-8,10H2,2-5H3/b11-9+",-3.164147933,CC1=C(C=CC(C)(O)C=C)C(C)(C)CCC1,0,G1,A,mono-constituent,Non Valid pH,Uncharged
A-1652,"InChI=1S/C9H14O2/c1-3-4-5-6-7-8-9(10)11-2/h3-6H2,1-2H3",-3.009132774,CCCCCC#CC(=O)OC,0,G1,A,mono-constituent,Non Valid pH,Uncharged
A-1654,"InChI=1S/Mn.2HO2P/c;2*1-3-2/h;2*(H,1,2)/q+2;;/p-2",-0.081304092,[O-]P=O,0,G1,A,mono-constituent,None,Negative
A-1662,"InChI=1S/C8H9NO2/c1-6-4-3-5-8(7(6)2)9(10)11/h3-5H,1-2H3",-3.003359989,CC1=CC=CC(=C1C)[N+]([O-])=O,0.053952699,G3,A,mono-constituent,None,PureChargeSeparation
A-1665,"InChI=1S/C13H10O3/c14-12-9-5-4-8-11(12)13(15)16-10-6-2-1-3-7-10/h1-9,14H",-3.154768756,OC1=CC=CC=C1C(=O)OC1=CC=CC=C1,0,G1,A,mono-constituent,None,Uncharged
A-1668,"InChI=1S/C12H22O2/c1-10(2)6-5-7-11(3)8-9-14-12(4)13/h6,11H,5,7-9H2,1-4H3",-4.09593873,CC(CCOC(C)=O)CCC=C(C)C,0,G1,A,mono-constituent,None,Uncharged
A-1669,"InChI=1S/C6H3F9/c1-2-3(7,8)4(9,10)5(11,12)6(13,14)15/h2H,1H2",-4.197937601,FC(F)(F)C(F)(F)C(F)(F)C(F)(F)C=C,0,G1,A,mono-constituent,None,Uncharged
A-1670,"InChI=1S/C16H16O2/c17-16(13-15-9-5-2-6-10-15)18-12-11-14-7-3-1-4-8-14/h1-10H,11-13H2",-4.188747793,O=C(CC1=CC=CC=C1)OCCC1=CC=CC=C1,0.075206544,G3,A,mono-constituent,None,Uncharged
A-1672,"InChI=1S/C24H34O9/c1-7-19(25)30-15-23(11-5,16-31-20(26)8-2)13-29-14-24(12-6,17-32-21(27)9-3)18-33-22(28)10-4/h7-10H,1-4,11-18H2,5-6H3",-4.492785524,CCC(COCC(CC)(COC(=O)C=C)COC(=O)C=C)(COC(=O)C=C)COC(=O)C=C,0,G1,A,None,None,Uncharged
A-1674,"InChI=1S/C18H21N3O9/c1-4-13(22)28-10-7-19-16(25)20(8-11-29-14(23)5-2)18(27)21(17(19)26)9-12-30-15(24)6-3/h4-6H,1-3,7-12H2",-2.451419462,C=CC(=O)OCCN1C(=O)N(CCOC(=O)C=C)C(=O)N(CCOC(=O)C=C)C1=O,0,G1,A,mono-constituent,None,Uncharged
A-1676,"InChI=1S/C8H16O2.C3H8O3/c1-2-3-4-5-6-7-8(9)10;4-1-3(6)2-5/h2-7H2,1H3,(H,9,10);3-6H,1-2H2",-3.200000781,CCCCCCCC([O-])=O,0,G1,A,UVCB,Cosolvent Buffer,Negative
A-1677,"InChI=1S/C10H11N/c1-8(2)10-5-3-9(7-11)4-6-10/h3-6,8H,1-2H3",-2.988795303,CC(C)C1=CC=C(C=C1)C#N,0,G1,A,mono-constituent,None,Uncharged
A-1678,"InChI=1S/C14H14O4/c1-3-9-17-13(15)11-7-5-6-8-12(11)14(16)18-10-4-2/h3-8H,1-2,9-10H2",-3.221135687,C=CCOC(=O)C1=CC=CC=C1C(=O)OCC=C,0.286250599,G5,A,mono-constituent,None,Uncharged
A-1679,"InChI=1S/C13H13N3/c14-13(15-11-7-3-1-4-8-11)16-12-9-5-2-6-10-12/h1-10H,(H3,14,15,16)",-2.157516386,[NH2+]=C(NC1=CC=CC=C1)NC1=CC=CC=C1,1.067788037,G4,A,mono-constituent,Non Valid pH,Positive
A-1680,"InChI=1S/C4H10S/c1-4(2,3)5/h5H,1-3H3",-1.787845868,CC(C)(C)S,0,G1,A,mono-constituent,None,Uncharged
A-1685,"InChI=1S/C9H18O/c1-7-4-8(10)6-9(2,3)5-7/h7-8,10H,4-6H2,1-3H3",-1.991659848,CC1CC(O)CC(C)(C)C1,0.046952251,G3,A,mono-constituent,None,Uncharged
A-1686,"InChI=1S/C8H11N/c1-9(2)8-6-4-3-5-7-8/h3-7H,1-2H3",-1.922073697,CN(C)C1=CC=CC=C1,0.041093378,G3,A,mono-constituent,None,Uncharged
A-1687,"InChI=1S/C8H8ClNO4/c1-13-7-4-6(10(11)12)8(14-2)3-5(7)9/h3-4H,1-2H3",-3.179312365,COC1=CC(=C(OC)C=C1Cl)[N+]([O-])=O,0,G1,A,mono-constituent,None,PureChargeSeparation
A-1688,InChI=1S/HI.K/h1H;/q;+1/p-1,0.935222717,[I-],0.092431073,G5,A,mono-constituent,None,Negative
A-1689,"InChI=1S/C36H62N4.2ClH/c1-3-5-7-9-15-19-27-37-35-23-31-39(32-24-35)29-21-17-13-11-12-14-18-22-30-40-33-25-36(26-34-40)38-28-20-16-10-8-6-4-2;;/h23-26,31-34H,3-22,27-30H2,1-2H3;2*1H",-1.642786266,CCCCCCCC[NH+]=C1C=CN(CCCCCCCCCCN2C=CC(C=C2)=[NH+]CCCCCCCC)C=C1,0,G1,A,mono-constituent,Non Valid pH,Positive
A-1690,InChI=1S/C9H8O/c10-8-4-7-9-5-2-1-3-6-9/h1-8H/b7-4+,-1.968818258,O=CC=CC1=CC=CC=C1,0.118825276,G5,A,mono-constituent,None,Uncharged
A-1692,"InChI=1S/C7H8F9NO3S/c1-17(2-3-18)21(19,20)7(15,16)5(10,11)4(8,9)6(12,13)14/h18H,2-3H2,1H3",-3.403685043,CN(CCO)S(=O)(=O)C(F)(F)C(F)(F)C(F)(F)C(F)(F)F,0,G1,A,mono-constituent,None,Uncharged
A-1693,"InChI=1S/C10H17NO/c1-9-4-3-5-10(2,7-6-9)8(9)11-12/h12H,3-7H2,1-2H3",-3.074152207,CC12CCC(C)(CCC1)C2=NO,0,G1,A,mono-constituent,None,Uncharged
A-1694,"InChI=1S/C8H9NO2/c1-6(10)9-7-2-4-8(11)5-3-7/h2-5,11H,1H3,(H,9,10)",-1.033323213,CC(=O)NC1=CC=C(O)C=C1,0.079316286,G5,A,mono-constituent,None,Uncharged
A-1699,"InChI=1S/C4H4O4.Fe/c5-3(6)1-2-4(7)8;/h1-2H,(H,5,6)(H,7,8);/q;+2/p-2/b2-1-;",-2.084067899,[O-]C(=O)C=CC([O-])=O,0,G1,A,None,None,Negative
A-1700,"InChI=1S/C13H20O/c1-5-7-11(14)12-10(2)8-6-9-13(12,3)4/h5,7-8,12H,6,9H2,1-4H3/b7-5+",-3.137855765,CC=CC(=O)C1C(C)=CCCC1(C)C,0,G1,A,mono-constituent,None,Uncharged
A-1701,"InChI=1S/C7H8N2O2/c1-5-4-6(9(10)11)2-3-7(5)8/h2-4H,8H2,1H3",-3.036152484,CC1=CC(=CC=C1N)[N+]([O-])=O,0,G1,A,mono-constituent,None,PureChargeSeparation
A-1702,"InChI=1S/C9H20O/c1-2-3-4-5-6-7-8-9-10/h10H,2-9H2,1H3",-3.013011871,CCCCCCCCCO,0.43522046,G5,A,mono-constituent,None,Uncharged
A-1703,"InChI=1S/C14H24O4/c1-3-9-17-13(15)11-7-5-6-8-12(11)14(16)18-10-4-2/h11-12H,3-10H2,1-2H3",-3.262691733,CCCOC(=O)C1CCCCC1C(=O)OCCC,0,G1,A,mono-constituent,None,Uncharged
A-1704,"InChI=1S/C14H12N2O3S2/c1-8-2-7-11-12(13(8)21(17,18)19)20-14(16-11)9-3-5-10(15)6-4-9/h2-7H,15H2,1H3,(H,17,18,19)",-4.332499462,CC1=CC=C2N=C(SC2=C1S([O-])(=O)=O)C1=CC=C(N)C=C1,0,G1,A,mono-constituent,None,Negative
A-1705,InChI=1S/C15H26O4/c16-14-10-8-6-4-2-1-3-5-7-9-11-15(17)19-13-12-18-14/h1-13H2,-4.261695179,O=C1CCCCCCCCCCCC(=O)OCCO1,0.167767963,G5,A,mono-constituent,None,Uncharged
A-1707,"InChI=1S/C12H8Cl2O2/c13-8-1-4-10(5-2-8)16-12-6-3-9(14)7-11(12)15/h1-7,15H",-4.239393124,OC1=CC(Cl)=CC=C1OC1=CC=C(Cl)C=C1,0.118871871,G5,A,mono-constituent,Non Valid pH,Uncharged
A-1708,"InChI=1S/C10H16/c1-5-10(4)8-6-7-9(2)3/h5,7-8H,1,6H2,2-4H3/b10-8+",-3.972930257,CC(C)=CCC=C(C)C=C,0,G1,A,multi-constituent,None,Uncharged
A-1710,"InChI=1S/C13H26O3/c1-10(9-12(2,3)4)8-11(14)15-16-13(5,6)7/h10H,8-9H2,1-7H3",-4.210096102,CC(CC(=O)OOC(C)(C)C)CC(C)(C)C,0,G1,A,mono-constituent,Unstable,Uncharged
A-1712,"InChI=1S/C6H9N11/c7-1-11-2(8)14-5(13-1)17-6-15-3(9)12-4(10)16-6/h(H9,7,8,9,10,11,12,13,14,15,16,17)",-4.225336978,NC1=NC([N-]C2=NC(N)=[NH+]C(N)=N2)=NC(N)=[NH+]1,0.26236641,G5,A,mono-constituent,Wrong Ionization,Zwitterion
A-1713,"InChI=1S/C13H24O4S2/c1-3-5-7-16-12(14)9-18-11-19-10-13(15)17-8-6-4-2/h3-11H2,1-2H3",-4.343077858,CCCCOC(=O)CSCSCC(=O)OCCCC,0,G1,A,mono-constituent,None,Uncharged
A-1714,"InChI=1S/C14H22O2/c1-10(2)14-7-5-13(3,6-8-14)11(9-14)12(15)16-4/h5,7,10-11H,6,8-9H2,1-4H3",-4.200866126,COC(=O)C1CC2(CCC1(C)C=C2)C(C)C,0,G1,A,multi-constituent,None,Uncharged
A-1715,"InChI=1S/C7H14/c1-7-5-3-2-4-6-7/h7H,2-6H2,1H3",-3.845934801,CC1CCCCC1,0.028967401,G3,A,mono-constituent,None,Uncharged