ID,InChI,Solubility,SMILEScurated,SD,Group,Dataset,Composition,Error,Charge
B-1121,"InChI=1S/C3H8O/c1-3-4-2/h3H2,1-2H3",-0.0799,CCOC,0,G1,B,None,None,Uncharged
B-1122,"InChI=1S/C2H8N2/c1-3-4-2/h3-4H,1-2H3",1.2211,CN[NH2+]C,0,G1,B,None,None,Positive
B-1123,"InChI=1S/C8H18/c1-7(2)6-8(3,4)5/h7H,6H2,1-5H3",-4.6704,CC(C)CC(C)(C)C,0.0378,G3,B,None,None,Uncharged
B-1124,"InChI=1S/C6H12O2/c1-5(7)8-6(2,3)4/h1-4H3",-1.1443,CC(=O)OC(C)(C)C,0,G1,B,None,None,Uncharged
B-1125,"InChI=1S/C12H36O6Si6/c1-19(2)13-20(3,4)15-22(7,8)17-24(11,12)18-23(9,10)16-21(5,6)14-19/h1-12H3",-7.9407,C[Si]1(C)O[Si](C)(C)O[Si](C)(C)O[Si](C)(C)O[Si](C)(C)O[Si](C)(C)O1,0,G1,B,None,None,Uncharged
B-1126,"InChI=1S/C10H30O5Si5/c1-16(2)11-17(3,4)13-19(7,8)15-20(9,10)14-18(5,6)12-16/h1-10H3",-7.3387,C[Si]1(C)O[Si](C)(C)O[Si](C)(C)O[Si](C)(C)O[Si](C)(C)O1,0,G1,B,None,None,Uncharged
B-1127,InChI=1S/C2H2AsCl3/c4-2-1-3(5)6/h1-2H/b2-1+,-2.6177,ClC=C[As](Cl)Cl,0,G1,B,None,None,Uncharged
B-1128,"InChI=1S/C4H8Cl2/c1-2-3-4(5)6/h4H,2-3H2,1H3",-2.4036,CCCC(Cl)Cl,0,G1,B,None,None,Uncharged
B-1129,"InChI=1S/2CH2O2.Ba/c2*2-1-3;/h2*1H,(H,2,3);/q;;+2/p-2",-0.0557,[O-]C=O,0,G1,B,None,None,Negative
B-1130,"InChI=1S/C4H9NO2/c1-3(5)2-4(6)7/h3H,2,5H2,1H3,(H,6,7)",0.9867,CC([NH3+])CC([O-])=O,0.04665,G3,B,None,None,Zwitterion
B-1131,"InChI=1S/C4H6O3/c1-3(5)2-4(6)7/h2H2,1H3,(H,6,7)",0.991,CC(=O)CC([O-])=O,0,G1,B,None,None,Negative
B-1132,"InChI=1S/C2H5N3S2/c3-1(6)5-2(4)7/h(H5,3,4,5,6,7)",-1.6996,NC(=S)NC(N)=S,0,G1,B,None,None,Uncharged
B-1133,"InChI=1S/C6H6O3/c1-4-2-5(7)3-6(8)9-4/h2H,3H2,1H3",-1.1185,CC1=CC(O)=CC(=O)O1,0,G1,B,None,None,Uncharged
B-1134,"InChI=1S/C6H11Cl/c7-6-4-2-1-3-5-6/h6H,1-5H2",-2.3752,ClC1CCCCC1,0,G1,B,None,None,Uncharged
B-1135,"InChI=1S/C6H11NO4/c7-4(6(10)11)2-1-3-5(8)9/h4H,1-3,7H2,(H,8,9)(H,10,11)",-1.8648,[NH3+]C(CCCC([O-])=O)C([O-])=O,0,G1,B,None,None,Zwitterion
B-1136,"InChI=1S/C5H10O2/c1-5(2)3-7-4-6/h4-5H,3H2,1-2H3",-1.0006,CC(C)COC=O,0,G1,B,None,None,Uncharged
B-1137,"InChI=1S/C4H9I/c1-2-3-4-5/h2-4H2,1H3",-2.9587,CCCCI,0,G1,B,None,None,Uncharged
B-1139,InChI=1S/C2H4Cl2O/c3-1-5-2-4/h1-2H2,-0.7181,ClCOCCl,0,G1,B,None,None,Uncharged
B-1140,"InChI=1S/C5H6/c1-2-4-5-3-1/h1-4H,5H2",-1.565,C1C=CC=C1,0,G1,B,None,None,Uncharged
B-1141,"InChI=1S/C3H9N3O3S/c4-3(5)6-1-2-10(7,8)9/h1-2H2,(H4,4,5,6)(H,7,8,9)",-0.6321,NC(=[NH2+])NCCS([O-])(=O)=O,0,G1,B,None,None,Zwitterion
B-1142,"InChI=1S/C4H9NO3/c1-4(2)3-8-5(6)7/h4H,3H2,1-2H3",-1.9521,CC(C)CO[N+]([O-])=O,0,G1,B,None,None,PureChargeSeparation
B-1143,"InChI=1S/C5H11Cl/c1-2-3-4-5-6/h2-5H2,1H3",-2.7324,CCCCCCl,0,G1,B,None,None,Uncharged
B-1144,"InChI=1S/2C2H4O2.Ba/c2*1-2(3)4;/h2*1H3,(H,3,4);/q;;+2/p-2",0.1948,CC([O-])=O,0,G1,B,None,None,Negative
B-1145,"InChI=1S/C6H13NO2/c1-5(2)3-4-9-6(7)8/h5H,3-4H2,1-2H3,(H2,7,8)",-1.4403,CC(C)CCOC(N)=O,0,G1,B,None,None,Uncharged
B-1146,"InChI=1S/C5H11NO3/c1-5(2)3-4-9-6(7)8/h5H,3-4H2,1-2H3",-2.4809,CC(C)CCO[N+]([O-])=O,0,G1,B,None,None,PureChargeSeparation
B-1147,"InChI=1S/2C2H4O2.Sr/c2*1-2(3)4;/h2*1H3,(H,3,4);/q;;+2/p-2",0.1446,CC([O-])=O,0,G1,B,None,None,Negative
B-1150,InChI=1S/C5H6N2/c6-4-2-1-3-5-7/h1-3H2,1.0263,N#CCCCC#N,0,G1,B,None,None,Uncharged
B-1151,"InChI=1S/C16H34/c1-3-5-7-9-11-13-15-16-14-12-10-8-6-4-2/h3-16H2,1-2H3",-8.4007,CCCCCCCCCCCCCCCC,0,G1,B,None,None,Uncharged
B-1152,"InChI=1S/C12H13N3O4S2/c13-9-1-5-12(6-2-9)21(18,19)15-10-3-7-11(8-4-10)20(14,16)17/h1-8,15H,13H2,(H2,14,16,17)",-2.7592,NC1=CC=C(C=C1)S(=O)(=O)NC1=CC=C(C=C1)S(N)(=O)=O,0,G1,B,None,None,Uncharged
B-1153,"InChI=1S/C4H8O3/c1-3(5)4(6)7-2/h3,5H,1-2H3",0.9825,COC(=O)C(C)O,0,G1,B,None,None,Uncharged
B-1154,InChI=1S/C5H6O2/c1-4-2-3-7-5(4)6/h1-3H2,0.1844,C=C1CCOC1=O,0,G1,B,None,None,Uncharged
B-1155,"InChI=1S/C24H40O5/c1-13(4-7-19(26)27)15-5-6-16-20-17(9-11-23(15,16)2)24(3)10-8-14(25)12-18(24)21(28)22(20)29/h13-18,20-22,25,28-29H,4-12H2,1-3H3,(H,26,27)/t13-,14-,15-,16+,17+,18+,20+,21-,22+,23-,24-/m1/s1",-4.3465,CC(CCC([O-])=O)C1CCC2C3C(O)C(O)C4CC(O)CCC4(C)C3CCC12C,0,G1,B,None,None,Negative
B-1156,"InChI=1S/C22H16O8/c1-2-28-20(25)15(16-18(23)11-7-3-5-9-13(11)29-21(16)26)17-19(24)12-8-4-6-10-14(12)30-22(17)27/h3-10,15,26-27H,2H2,1H3",-3.4264,CCOC(=O)C(C1=C([O-])C2=CC=CC=C2OC1=O)C1=C([O-])C2=CC=CC=C2OC1=O,0,G1,B,None,None,Negative
B-1157,"InChI=1S/C11H14O3/c1-6(2)8-5-4-7(3)9(10(8)12)11(13)14/h4-6,12H,1-3H3,(H,13,14)",-3.2883,CC(C)C1=CC=C(C)C(C([O-])=O)=C1O,0,G1,B,None,None,Negative
B-1159,"InChI=1S/C9H13N3O2/c1-6(2)5-12-7(10)4-8(13)11(3)9(12)14/h4H,1,5,10H2,2-3H3",-0.9895,CN1C(=O)C=C(N)N(CC(C)=C)C1=O,0,G1,B,None,None,Uncharged
B-1160,"InChI=1S/C10H12N4O4/c15-2-6-7(16)8(17)10(18-6)14-4-13-5-1-11-3-12-9(5)14/h1,3-4,6-8,10,15-17H,2H2/t6-,7-,8-,10-/m1/s1",-0.4018,OCC1OC(C(O)C1O)N1C=NC2=CN=CN=C12,0,G1,B,None,None,Uncharged
B-1161,"InChI=1S/C10H7NO3/c12-9-6-5-7-3-1-2-4-8(7)10(9)11(13)14/h1-6,12H",-2.9758,[O-]C1=C(C2=CC=CC=C2C=C1)[N+]([O-])=O,0,G1,B,None,None,Negative
B-1162,"InChI=1S/C7H5Cl3O/c1-3-4(8)2-5(9)7(11)6(3)10/h2,11H,1H3",-3.2761,CC1=C(Cl)C=C(Cl)C([O-])=C1Cl,0,G1,B,None,None,Negative
B-1164,"InChI=1S/C9H15NO/c1-10-7-3-2-4-8(10)6-9(11)5-7/h7-8H,2-6H2,1H3",0.4167,C[NH+]1C2CCCC1CC(=O)C2,0,G1,B,None,None,Positive
B-1165,"InChI=1S/C6H7N3O/c7-9-6(10)5-2-1-3-8-4-5/h1-4H,7H2,(H,9,10)",-0.1372,NNC(=O)C1=CC=CN=C1,0,G1,B,None,None,Uncharged
B-1166,"InChI=1S/C9H12N2O3/c1-2-5-14-9-4-3-7(11(12)13)6-8(9)10/h3-4,6H,2,5,10H2,1H3",-3.1592,CCCOC1=CC=C(C=C1N)[N+]([O-])=O,0,G1,B,None,None,PureChargeSeparation
B-1167,InChI=1S/C4H6O4/c1-7-3(5)4(6)8-2/h1-2H3,-0.2919,COC(=O)C(=O)OC,0,G1,B,None,None,Uncharged
B-1172,"InChI=1S/C10H13NO4/c1-10(11,9(14)15)5-6-2-3-7(12)8(13)4-6/h2-4,12-13H,5,11H2,1H3,(H,14,15)/t10-/m0/s1",-1.3247,CC([NH3+])(CC1=CC=C(O)C(O)=C1)C([O-])=O,0,G1,B,None,None,Zwitterion
B-1173,"InChI=1S/C10H9NO3/c12-9(6-7-10(13)14)11-8-4-2-1-3-5-8/h1-7H,(H,11,12)(H,13,14)/b7-6-",-2.2815,[O-]C(=O)C=CC(=O)NC1=CC=CC=C1,0,G1,B,None,None,Negative
B-1174,"InChI=1S/C8H8N4O4/c13-8-9-3-4-11(8)10-5-6-1-2-7(16-6)12(14)15/h1-2,5H,3-4H2,(H,9,13)/b10-5+",-3.3572,[O-][N+](=O)C1=CC=C(O1)C=NN1CCNC1=O,0,G1,B,None,None,PureChargeSeparation
B-1175,"InChI=1S/C9H11NO3/c10-8(9(12)13)5-6-1-3-7(11)4-2-6/h1-4,8,11H,5,10H2,(H,12,13)/t8-/m1/s1",-2.6049,[NH3+]C(CC1=CC=C(O)C=C1)C([O-])=O,0,G1,B,None,None,Zwitterion
B-1176,"InChI=1S/C9H11NO3/c10-8(9(12)13)5-6-1-3-7(11)4-2-6/h1-4,8,11H,5,10H2,(H,12,13)",-2.6561,[NH3+]C(CC1=CC=C(O)C=C1)C([O-])=O,0.20722738,G5,B,None,None,Zwitterion
B-1178,"InChI=1S/2C5H10O2.Zn/c2*1-2-3-4-5(6)7;/h2*2-4H2,1H3,(H,6,7);/q;;+2/p-2",-1.2722,CCCCC([O-])=O,0,G1,B,None,None,Negative
B-1179,"InChI=1S/C3H6O2/c4-1-3-2-5-3/h3-4H,1-2H2",1.1303,OCC1CO1,0,G1,B,None,None,Uncharged
B-1183,"InChI=1S/C4H4N2O/c7-4-5-2-1-3-6-4/h1-3H,(H,5,6,7)",0.6749,O=C1NC=CC=N1,0,G1,B,None,None,Uncharged
B-1184,"InChI=1S/C4H10O/c1-3-4-5-2/h3-4H2,1-2H3",-0.3857,CCCOC,0.30215,G3,B,None,None,Uncharged
B-1185,"InChI=1S/C7H14O4/c1-2-3-7(10)11-5-6(9)4-8/h6,8-9H,2-5H2,1H3",-1.335,CCCC(=O)OCC(O)CO,0,G1,B,None,None,Uncharged
B-1186,"InChI=1S/2C2H4O2.Zn/c2*1-2(3)4;/h2*1H3,(H,3,4);/q;;+2/p-2",0.2179,CC([O-])=O,0,G1,B,None,None,Negative
B-1187,"InChI=1S/C6H10O/c1-3-5-7-6-4-2/h3-4H,1-2,5-6H2",-0.0206,C=CCOCC=C,0,G1,B,None,None,Uncharged
B-1188,"InChI=1S/2CH2O2.Zn/c2*2-1-3;/h2*1H,(H,2,3);/q;;+2/p-2",-0.4755,[O-]C=O,0,G1,B,None,None,Negative
B-1189,"InChI=1S/CBr4/c2-1(3,4)5",-3.1404,BrC(Br)(Br)Br,0,G1,B,None,None,Uncharged
B-1190,"InChI=1S/CH3FO2S/c1-5(2,3)4/h1H3",-0.5145,CS(F)(=O)=O,0,G1,B,None,None,Uncharged
B-1192,"InChI=1S/C4H9ClO/c1-4(2,6)3-5/h6H,3H2,1-2H3",0.1602,CC(C)(O)CCl,0,G1,B,None,None,Uncharged
B-1193,"InChI=1S/CBrN3O6/c2-1(3(6)7,4(8)9)5(10)11",-1.7705,[O-][N+](=O)C(Br)([N+]([O-])=O)[N+]([O-])=O,0,G1,B,None,None,PureChargeSeparation
B-1194,"InChI=1S/C21H23NO5/c1-11(23)25-16-6-4-13-10-15-14-5-7-17(26-12(2)24)20-21(14,8-9-22(15)3)18(13)19(16)27-20/h4-7,14-15,17,20H,8-10H2,1-3H3/t14-,15+,17-,20-,21-/m0/s1",-2.7894,C[NH+]1CCC23C4OC5=C2C(CC1C3C=CC4OC(C)=O)=CC=C5OC(C)=O,0,G1,B,None,None,Positive
B-1195,"InChI=1S/C7H16/c1-5-7(3,4)6-2/h5-6H2,1-4H3",-4.2286,CCC(C)(C)CC,0,G1,B,None,None,Uncharged
B-1196,"InChI=1S/C9H22O4P2S4/c1-5-10-14(16,11-6-2)18-9-19-15(17,12-7-3)13-8-4/h5-9H2,1-4H3",-5.2838,CCOP(=S)(OCC)SCSP(=S)(OCC)OCC,0.1281,G3,B,None,None,Uncharged
B-1197,"InChI=1S/C5H10/c1-4-5(2)3/h4-5H,1H2,2-3H3",-2.732,CC(C)C=C,0,G1,B,None,None,Uncharged
B-1198,"InChI=1S/C5H10/c1-4-5(2)3/h2,4H2,1,3H3",-2.7307,CCC(C)=C,0,G1,B,None,None,Uncharged
B-1199,"InChI=1S/C4H7Cl/c1-4(2)3-5/h1,3H2,2H3",-1.8108,CC(=C)CCl,0,G1,B,None,None,Uncharged
B-1200,"InChI=1S/C3H4Cl2/c1-3(5)2-4/h2H,1H3/b3-2-",-1.6138,CC(Cl)=CCl,0,G1,B,None,None,Uncharged
B-1201,"InChI=1S/C4H9ClO/c1-3(5)4(2)6/h3-4,6H,1-2H3",-0.2122,CC(O)C(C)Cl,0,G1,B,None,None,Uncharged
B-1202,"InChI=1S/C4H6O2/c1-3(5-1)4-2-6-4/h3-4H,1-2H2/t3-,4+",1.065,C1OC1C1CO1,0,G1,B,None,None,Uncharged
B-1203,"InChI=1S/C8H18/c1-6-7(2)8(3,4)5/h7H,6H2,1-5H3",-4.6776,CCC(C)C(C)(C)C,0,G1,B,None,None,Uncharged
B-1205,"InChI=1S/C7H16/c1-5-7(4)6(2)3/h6-7H,5H2,1-4H3",-4.2808,CCC(C)C(C)C,0,G1,B,None,None,Uncharged
B-1206,"InChI=1S/C6H14O/c1-4-5(2)6(3)7/h5-7H,4H2,1-3H3",-0.7216,CCC(C)C(C)O,0,G1,B,None,None,Uncharged
B-1207,"InChI=1S/C6H12O/c1-4-5(2)6(3)7/h5H,4H2,1-3H3",-0.6805,CCC(C)C(C)=O,0.00525,G3,B,None,None,Uncharged
B-1208,"InChI=1S/C6H14O/c1-4-6(7)5(2)3/h5-7H,4H2,1-3H3",-0.7062,CCC(O)C(C)C,0,G1,B,None,None,Uncharged
B-1209,"InChI=1S/C6H12O/c1-4-6(7)5(2)3/h5H,4H2,1-3H3",-0.8106,CCC(=O)C(C)C,0,G1,B,None,None,Uncharged
B-1210,"InChI=1S/C3H7NO3/c4-1-2(5)3(6)7/h2,5H,1,4H2,(H,6,7)",-0.8229,[NH3+]CC(O)C([O-])=O,0.007,G3,B,None,None,Zwitterion
B-1211,"InChI=1S/C5H9BrO2/c1-3(2)4(6)5(7)8/h3-4H,1-2H3,(H,7,8)",-1.103,CC(C)C(Br)C([O-])=O,0,G1,B,None,None,Negative
B-1212,"InChI=1S/C8H18/c1-6(2)8(5)7(3)4/h6-8H,1-5H3",-4.6961,CC(C)C(C)C(C)C,0.05195,G3,B,None,None,Uncharged
B-1213,"InChI=1S/C7H14O/c1-5(2)7(8)6(3)4/h5-6H,1-4H3",-1.3018,CC(C)C(=O)C(C)C,0,G1,B,None,None,Uncharged
B-1214,"InChI=1S/C4H9NO3/c1-2(5)3(6)4(7)8/h2-3,6H,5H2,1H3,(H,7,8)",-0.3535,CC([NH3+])C(O)C([O-])=O,0,G1,B,None,None,Zwitterion
B-1215,"InChI=1S/C21H20O8/c1-25-13-4-9(5-14(26-2)19(13)23)16-11-6-15-20(29-8-28-15)18(22)12(11)3-10-7-27-21(24)17(10)16/h4-6,10,16-17,22-23H,3,7-8H2,1-2H3/t10-,16+,17-/m0/s1",-4.1254,COC1=CC(=CC(OC)=C1O)C1C2C(COC2=O)CC2=C(O)C3=C(OCO3)C=C12,0,G1,B,None,None,Uncharged
B-1216,"InChI=1S/C10H10O4/c1-12-7-4-3-6-5-14-10(11)8(6)9(7)13-2/h3-4H,5H2,1-2H3",-1.8903,COC1=CC=C2COC(=O)C2=C1OC,0.00515,G3,B,None,None,Uncharged
B-1217,"InChI=1S/C5H4N2O4/c8-4(9)2-3(5(10)11)7-1-6-2/h1H,(H,6,7)(H,8,9)(H,10,11)",-2.4944,[O-]C(=O)C1=C(N=CN1)C([O-])=O,0,G1,B,None,None,Negative
B-1218,"InChI=1S/C6H13O9P/c7-1-2(8)4(10)6(5(11)3(1)9)15-16(12,13)14/h1-11H,(H2,12,13,14)",0.1076,OC1C(O)C(O)C(OP([O-])([O-])=O)C(O)C1O,0,G1,B,None,None,Negative
B-1219,"InChI=1S/C9H10O4/c1-12-6-13-9(11)7-4-2-3-5-8(7)10/h2-5,10H,6H2,1H3",-2.3,COCOC(=O)C1=CC=CC=C1O,0,G1,B,None,None,Uncharged
B-1221,"InChI=1S/C7H11NO4/c9-6(10)4-1-2-8-3-5(4)7(11)12/h4-5,8H,1-3H2,(H,9,10)(H,11,12)",-0.5395,[O-]C(=O)C1CC[NH2+]CC1C([O-])=O,0,G1,B,None,None,Zwitterion
B-1222,"InChI=1S/C13H10N2/c14-11-5-3-7-13-10(11)8-9-4-1-2-6-12(9)15-13/h1-8H,14H2",-4.222,NC1=C2C=C3C=CC=CC3=NC2=CC=C1,0,G1,B,None,None,Uncharged
B-1223,"InChI=1S/C14H14O2/c15-13(11-7-3-1-4-8-11)14(16)12-9-5-2-6-10-12/h1-10,13-16H",-1.933,OC(C(O)C1=CC=CC=C1)C1=CC=CC=C1,0,G1,B,None,None,Uncharged
B-1225,"InChI=1S/C10H15N/c1-3-8-6-5-7-9(4-2)10(8)11/h5-7H,3-4,11H2,1-2H3",-2.3478,CCC1=CC=CC(CC)=C1N,0,G1,B,None,None,Uncharged
B-1226,InChI=1S/C10H7Br/c11-10-6-5-8-3-1-2-4-9(8)7-10/h1-7H,-4.4001,BrC1=CC2=CC=CC=C2C=C1,0,G1,B,None,None,Uncharged
B-1227,"InChI=1S/C9H7NO/c11-8-5-7-3-1-2-4-9(7)10-6-8/h1-6,11H",-2.3925,OC1=CC2=CC=CC=C2N=C1,0,G1,B,None,None,Uncharged
B-1228,"InChI=1S/C9H7NO/c11-8-4-3-7-2-1-5-10-9(7)6-8/h1-6,11H",-2.5038,OC1=CC2=NC=CC=C2C=C1,0,G1,B,None,None,Uncharged
B-1229,"InChI=1S/C11H20ClN5/c1-5-16(6-2)10-13-9(12)14-11(15-10)17(7-3)8-4/h5-8H2,1-4H3",-4.4112,CCN(CC)C1=NC(=NC(Cl)=N1)N(CC)CC,0.0244,G3,B,None,None,Uncharged
B-1230,"InChI=1S/C10H12N2/c1-2-7-12-10(5-1)9-4-3-6-11-8-9/h1-4,6,8,10,12H,5,7H2/t10-/m0/s1",0.7953,C1[NH2+]C(CC=C1)C1=CC=CN=C1,0,G1,B,None,None,Positive
B-1231,InChI=1S/C10H8N2/c1-2-7-12-10(5-1)9-4-3-6-11-8-9/h1-8H,-0.5916,C1=CC=C(N=C1)C1=CC=CN=C1,0,G1,B,None,None,Uncharged
B-1232,"InChI=1S/C5H4N4S/c10-5-8-3-1-6-2-7-4(3)9-5/h1-2H,(H2,6,7,8,9,10)",-2.5243,S=C1NC2=CN=CN=C2N1,0,G1,B,None,None,Uncharged
B-1233,"InChI=1S/C2H2O4.2K/c3-1(4)2(5)6;;/h(H,3,4)(H,5,6);;/q;2*+1/p-2",0.1773,[O-]C(=O)C([O-])=O,0.097659233,G3,B,None,None,Negative
B-1236,"InChI=1S/C19H26O3/c1-7-8-13-12(4)16(10-15(13)20)22-18(21)17-14(9-11(2)3)19(17,5)6/h7,9,14,16-17H,1,8,10H2,2-6H3",-4.8179,CC(C)=CC1C(C(=O)OC2CC(=O)C(CC=C)=C2C)C1(C)C,0,G1,B,None,None,Uncharged
B-1237,"InChI=1S/C4H8N2O3/c1-2(3(7)8)6-4(5)9/h2H,1H3,(H,7,8)(H3,5,6,9)/t2-/m0/s1",-0.7845,CC(NC(N)=O)C([O-])=O,0,G1,B,None,None,Negative
B-1238,"InChI=1S/C10H14O/c1-10(2,3)8-5-4-6-9(11)7-8/h4-7,11H,1-3H3",-1.8614,CC(C)(C)C1=CC=CC(O)=C1,0,G1,B,None,None,Uncharged
B-1239,InChI=1S/C6H4BrNO2/c7-5-2-1-3-6(4-5)8(9)10/h1-4H,-1.3054,[O-][N+](=O)C1=CC=CC(Br)=C1,0,G1,B,None,None,PureChargeSeparation
B-1240,"InChI=1S/C6H6O6/c7-4(8)1-3(6(11)12)2-5(9)10/h1H,2H2,(H,7,8)(H,9,10)(H,11,12)/b3-1+",0.3612,[O-]C(=O)CC(=CC([O-])=O)C([O-])=O,0.0484,G3,B,None,None,Negative
B-1241,"InChI=1S/C12H24O11/c13-1-4(16)7(18)11(5(17)2-14)23-12-10(21)9(20)8(19)6(3-15)22-12/h4-21H,1-3H2",0.2872,OCC(O)C(O)C(OC1OC(CO)C(O)C(O)C1O)C(O)CO,0,G1,B,None,None,Uncharged
B-1242,"InChI=1S/C12H22O11/c13-1-3-5(14)8(17)10(19)12(23-3)21-2-4-6(15)7(16)9(18)11(20)22-4/h3-20H,1-2H2",0.4656,OCC1OC(OCC2OC(O)C(O)C(O)C2O)C(O)C(O)C1O,0,G1,B,None,None,Uncharged
B-1243,"InChI=1S/C6H4N2O5/c9-6-2-4(7(10)11)1-5(3-6)8(12)13/h1-3,9H",-1.663,[O-]C1=CC(=CC(=C1)[N+]([O-])=O)[N+]([O-])=O,0,G1,B,None,None,Negative
B-1244,"InChI=1S/C8H5BrO4/c9-6-3-4(7(10)11)1-2-5(6)8(12)13/h1-3H,(H,10,11)(H,12,13)",-2.1339,[O-]C(=O)C1=CC=C(C([O-])=O)C(Br)=C1,0,G1,B,None,None,Negative
B-1246,"InChI=1S/C6H7NO/c8-5-6-1-3-7-4-2-6/h1-4,8H,5H2",0.9621,OCC1=CC=NC=C1,0,G1,B,None,None,Uncharged
B-1247,"InChI=1S/C4H7Cl2NO2/c5-1-3(2-6)9-4(7)8/h3H,1-2H2,(H2,7,8)",-1.3605,NC(=O)OC(CCl)CCl,0,G1,B,None,None,Uncharged
B-1248,"InChI=1S/C8H10O/c1-7-3-2-4-8(5-7)6-9/h2-5,9H,6H2,1H3",-0.388,CC1=CC=CC(CO)=C1,0,G1,B,None,None,Uncharged
B-1249,"InChI=1S/C8H6Cl2O3/c9-5-1-6(10)3-7(2-5)13-4-8(11)12/h1-3H,4H2,(H,11,12)",-2.3617,[O-]C(=O)COC1=CC(Cl)=CC(Cl)=C1,0,G1,B,None,None,Negative
B-1250,"InChI=1S/C8H7ClO3/c9-6-2-1-3-7(4-6)12-5-8(10)11/h1-4H,5H2,(H,10,11)",-2.1954,[O-]C(=O)COC1=CC=CC(Cl)=C1,0.1477,G3,B,None,None,Negative
B-1251,InChI=1S/C14H12/c1-3-7-13(8-4-1)11-12-14-9-5-2-6-10-14/h1-12H/b12-11+,-5.7905,C(=CC1=CC=CC=C1)C1=CC=CC=C1,0.06975,G3,B,None,None,Uncharged
B-1252,"InChI=1S/C8H10O2/c9-5-7-1-2-8(6-10)4-3-7/h1-4,9-10H,5-6H2",-0.3861,OCC1=CC=C(CO)C=C1,0,G1,B,None,None,Uncharged
B-1253,"InChI=1S/C7H16/c1-4-6-7(3)5-2/h7H,4-6H2,1-3H3",-4.3063,CCCC(C)CC,0,G1,B,None,None,Uncharged
B-1255,"InChI=1S/C6H12O/c1-3-5-6(7)4-2/h3-5H2,1-2H3",-0.8334,CCCC(=O)CC,0,G1,B,None,None,Uncharged
B-1256,"InChI=1S/C8H18/c1-4-6-7-8(3)5-2/h8H,4-7H2,1-3H3",-5.1591,CCCCC(C)CC,0,G1,B,None,None,Uncharged
B-1258,"InChI=1S/C8H16/c1-7-3-5-8(2)6-4-7/h7-8H,3-6H2,1-2H3",-4.4657,CC1CCC(C)CC1,0,G1,B,None,None,Uncharged
B-1259,"InChI=1S/C7H14O2/c1-3-5-6-9-7(8)4-2/h3-6H2,1-2H3",-1.9385,CCCCOC(=O)CC,0,G1,B,None,None,Uncharged
B-1260,InChI=1S/C2H2I2/c3-1-2-4/h1-2H/b2-1-,-2.7813,IC=CI,0,G1,B,None,None,Uncharged
B-1262,"InChI=1S/CH2O2.K/c2-1-3;/h1H,(H,2,3);/q;+1/p-1",0.9288,[O-]C=O,0.073163275,G3,B,None,None,Negative
B-1263,"InChI=1S/C7H16/c1-5-6-7(2,3)4/h5-6H2,1-4H3",-4.3575,CCCC(C)(C)C,0,G1,B,None,None,Uncharged
B-1264,"InChI=1S/C6H14O/c1-4-5-6(2,3)7/h7H,4-5H2,1-3H3",-0.4988,CCCC(C)(C)O,0,G1,B,None,None,Uncharged
B-1265,"InChI=1S/C7H16N2O2.ClH/c1-6(11-7(8)10)5-9(2,3)4;/h6H,5H2,1-4H3,(H-,8,10);1H",0.5021,CC(C[N+](C)(C)C)OC(N)=O,0,G1,B,None,None,Positive
B-1266,"InChI=1S/C8H18/c1-5-6-7-8(2,3)4/h5-7H2,1-4H3",-5.7568,CCCCC(C)(C)C,0,G1,B,None,None,Uncharged
B-1268,"InChI=1S/2C2H6N4O.H2O4S/c2*3-1(4)6-2(5)7;1-5(2,3)4/h2*(H6,3,4,5,6,7);(H2,1,2,3,4)",-0.7814,NC(N)=[NH+]C(N)=O,0,G1,B,None,Cosolvent Buffer,Positive
B-1269,"InChI=1S/C7H12O/c1-6-3-2-4-7(8)5-6/h6H,2-5H2,1H3",-1.8738,CC1CCCC(=O)C1,0,G1,B,None,None,Uncharged
B-1270,"InChI=1S/C7H12/c1-7-5-3-2-4-6-7/h5H,2-4,6H2,1H3",-3.2671,CC1=CCCCC1,0,G1,B,None,None,Uncharged
B-1271,"InChI=1S/C7H16/c1-4-5-6-7(2)3/h7H,4-6H2,1-3H3",-4.5961,CCCCC(C)C,0,G1,B,None,None,Uncharged
B-1272,"InChI=1S/C5H8O2/c1-3-4-7-5(2)6/h3H,1,4H2,2H3",-0.5534,CC(=O)OCC=C,0,G1,B,None,None,Uncharged
B-1273,"InChI=1S/C4H7Cl/c1-2-3-4-5/h2-3H,4H2,1H3/b3-2+",-1.9569,CC=CCCl,0,G1,B,None,None,Uncharged
B-1274,"InChI=1S/C7H14/c1-3-5-7-6-4-2/h3,5H,4,6-7H2,1-2H3/b5-3+",-3.816,CCCCC=CC,0.0069,G3,B,None,None,Uncharged
B-1275,"InChI=1S/C5H10O2/c1-2-3-4-7-5-6/h5H,2-4H2,1H3",-1.1307,CCCCOC=O,0.11965,G3,B,None,None,Uncharged
B-1277,InChI=1S/CH2ClF/c2-1-3/h1H2,-0.8202,FCCl,0,G1,B,None,None,Uncharged
B-1278,InChI=1S/C2H6Se/c1-3-2/h1-2H3,-0.6502,C[Se]C,0,G1,B,None,None,Uncharged
B-1280,"InChI=1S/C2H2Br3NO/c3-2(4,5)1(6)7/h(H2,6,7)",-1.2668,NC(=O)C(Br)(Br)Br,0,G1,B,None,None,Uncharged
B-1282,"InChI=1S/C2H2Cl3NO/c3-2(4,5)1(6)7/h(H2,6,7)",-1.0966,NC(=O)C(Cl)(Cl)Cl,0,G1,B,None,None,Uncharged
B-1283,"InChI=1S/C2H3Cl2NO2/c1-2(3,4)5(6)7/h1H3",-1.7603,CC(Cl)(Cl)[N+]([O-])=O,0,G1,B,None,None,PureChargeSeparation
B-1284,"InChI=1S/C7H16O/c1-5-7(4,8)6(2)3/h6,8H,5H2,1-4H3",-0.8504,CCC(C)(O)C(C)C,0.1848,G3,B,None,None,Uncharged
B-1285,"InChI=1S/C3H5Cl2NO2/c1-2-3(4,5)6(7)8/h2H2,1H3",-1.4996,CCC(Cl)(Cl)[N+]([O-])=O,0,G1,B,None,None,PureChargeSeparation
B-1286,"InChI=1S/C5H11NO4/c1-2-5(3-7,4-8)6(9)10/h7-8H,2-4H2,1H3",0.8264,CCC(CO)(CO)[N+]([O-])=O,0,G1,B,None,None,PureChargeSeparation
B-1287,"InChI=1S/C5H10O2/c1-5(2,3-6)4-7/h3,7H,4H2,1-2H3",-0.3279,CC(C)(CO)C=O,0,G1,B,None,None,Uncharged
B-1288,"InChI=1S/C4H8Cl2O/c1-4(7,2-5)3-6/h7H,2-3H2,1H3",-0.1822,CC(O)(CCl)CCl,0,G1,B,None,None,Uncharged
B-1290,"InChI=1S/C13H20O8/c1-9(14)18-5-13(6-19-10(2)15,7-20-11(3)16)8-21-12(4)17/h5-8H2,1-4H3",-1.5686,CC(=O)OCC(COC(C)=O)(COC(C)=O)COC(C)=O,0,G1,B,None,None,Uncharged
B-1292,"InChI=1S/C8H18O/c1-4-6-8(3,9)7-5-2/h9H,4-7H2,1-3H3",-1.5867,CCCC(C)(O)CCC,0,G1,B,None,None,Uncharged
B-1294,"InChI=1S/C4H7ClO/c1-4(2-5)3-6-4/h2-3H2,1H3",-0.5504,CC1(CCl)CO1,0,G1,B,None,None,Uncharged
B-1295,"InChI=1S/C2H3Br2Cl/c3-1-2(4)5/h2H,1H2",-2.5546,ClC(Br)CBr,0,G1,B,None,None,Uncharged
B-1297,"InChI=1S/C4H10O/c1-4(2)5-3/h4H,1-3H3",-0.057,COC(C)C,0,G1,B,None,None,Uncharged
B-1298,"InChI=1S/C2H3Br2NO/c3-1(4)2(5)6/h1H,(H2,5,6)",-1.0574,NC(=O)C(Br)Br,0,G1,B,None,None,Uncharged
B-1299,"InChI=1S/C3H5Cl3/c1-2(4)3(5)6/h2-3H,1H3",-1.8898,CC(Cl)C(Cl)Cl,0,G1,B,None,None,Uncharged
B-1300,"InChI=1S/C3H5ClO2/c1-2(4)3(5)6/h2H,1H3,(H,5,6)",0.9645,CC(Cl)C([O-])=O,0,G1,B,None,None,Negative
B-1302,"InChI=1S/C2H4ClNO2/c1-2(3)4(5)6/h2H,1H3",-1.4374,CC(Cl)[N+]([O-])=O,0,G1,B,None,None,PureChargeSeparation
B-1303,"InChI=1S/C14H14O3S/c1-11-7-9-13(10-8-11)18(15,16)17-14-6-4-3-5-12(14)2/h3-10H,1-2H3",-3.9417,CC1=CC=C(C=C1)S(=O)(=O)OC1=CC=CC=C1C,0,G1,B,None,None,Uncharged
B-1304,"InChI=1S/C6H11Cl3O2/c1-3-10-5(11-4-2)6(7,8)9/h5H,3-4H2,1-2H3",-1.6464,CCOC(OCC)C(Cl)(Cl)Cl,0,G1,B,None,None,Uncharged
B-1305,"InChI=1S/C3H6ClNO2/c1-2-3(4)5(6)7/h3H,2H2,1H3",-1.1887,CCC(Cl)[N+]([O-])=O,0,G1,B,None,None,PureChargeSeparation
B-1306,"InChI=1S/C7H16O/c1-5(2)7(8)6(3)4/h5-8H,1-4H3",-1.2201,CC(C)C(O)C(C)C,0,G1,B,None,None,Uncharged
B-1307,"InChI=1S/C5H8O4/c1-2-3(4(6)7)5(8)9/h3H,2H2,1H3,(H,6,7)(H,8,9)",0.7315,CCC(C([O-])=O)C([O-])=O,0,G1,B,None,None,Negative
B-1308,"InChI=1S/C12H9NO2/c14-13(15)11-7-6-9-5-4-8-2-1-3-10(11)12(8)9/h1-3,6-7H,4-5H2",-5.3403,[O-][N+](=O)C1=CC=C2CCC3=C2C1=CC=C3,0,G1,B,None,None,PureChargeSeparation
B-1309,"InChI=1S/C7H4Br2O5/c8-2-1(7(13)14)3(9)5(11)6(12)4(2)10/h10-12H,(H,13,14)",-0.4188,OC1=C(O)C(Br)=C(C([O-])=O)C(Br)=C1O,0,G1,B,None,None,Negative
B-1310,"InChI=1S/C7H5N3O7/c1-3-4(8(12)13)2-5(9(14)15)7(11)6(3)10(16)17/h2,11H,1H3",-2.0434,CC1=C(C=C(C([O-])=C1[N+]([O-])=O)[N+]([O-])=O)[N+]([O-])=O,0,G1,B,None,None,Negative