ID,InChI,Solubility,SMILEScurated,SD,Group,Dataset,Composition,Error,Charge
A-1141,"InChI=1S/C13H12O2/c14-10-11-5-4-8-13(9-11)15-12-6-2-1-3-7-12/h1-9,14H,10H2",-2.825873142,OCC1=CC=CC(OC2=CC=CC=C2)=C1,0.041686585,G3,A,mono-constituent,None,Uncharged
A-1143,"InChI=1S/C12H23NO/c14-12-10-8-6-4-2-1-3-5-7-9-11-13-12/h1-11H2,(H,13,14)",-2.81950432,O=C1CCCCCCCCCCCN1,0.165044771,G5,A,mono-constituent,None,Uncharged
A-1144,"InChI=1S/C10H10O2/c1-12-10(11)8-7-9-5-3-2-4-6-9/h2-8H,1H3/b8-7+",-2.73434753,COC(=O)C=CC1=CC=CC=C1,0.035763211,G5,A,mono-constituent,None,Uncharged
A-1145,"InChI=1S/C9H14N2S2/c1-5-8(10)6(12-2)4-7(13-3)9(5)11/h4H,10-11H2,1-3H3",-2.856925458,CSC1=CC(SC)=C(N)C(C)=C1N,0.132350625,G3,A,None,None,Uncharged
A-1148,"InChI=1S/C11H14O2/c1-4-5-9-6-7-10(12-2)11(8-9)13-3/h4-8H,1-3H3/b5-4+",-2.778226795,COC1=CC=C(C=CC)C=C1OC,0,G1,A,mono-constituent,None,Uncharged
A-1149,"InChI=1S/C10H9NO/c1-7-5-6-8-3-2-4-9(12)10(8)11-7/h2-6,12H,1H3",-1.730618615,CC1=NC2=C(O)C=CC=C2C=C1,0,G1,A,mono-constituent,None,Uncharged
A-1152,"InChI=1S/2C10H18O2.Co/c2*1-2-8-3-4-9(7-8)5-6-10(11)12;/h2*8-9H,2-7H2,1H3,(H,11,12);/q;;+2/p-2",-3.132383191,[Co++].CCC1CCC(CCC([O-])=O)C1.CCC1CCC(CCC([O-])=O)C1,0,G1,A,None,Cosolvent Buffer,Negative
A-1153,"InChI=1S/C17H28O6/c1-5-15(18)22-11-7-9-20-13-17(3,4)14-21-10-8-12-23-16(19)6-2/h5-6H,1-2,7-14H2,3-4H3",-3.04954214,CC(C)(COCCCOC(=O)C=C)COCCCOC(=O)C=C,0,G1,A,None,None,Uncharged
A-1154,"InChI=1S/C6H12O2/c1-2-3-4-5-8-6-7/h6H,2-5H2,1H3",-1.602059991,CCCCCOC=O,0,G1,A,mono-constituent,None,Uncharged
A-1155,"InChI=1S/C10H10O4/c1-13-9(11)7-4-3-5-8(6-7)10(12)14-2/h3-6H,1-2H3",-2.825819918,COC(=O)C1=CC(=CC=C1)C(=O)OC,0,G1,A,mono-constituent,None,Uncharged
A-1156,"InChI=1S/C8H8/c1-2-8-6-4-3-5-7-8/h2-7H,1H2",-2.555269616,C=CC1=CC=CC=C1,0.10480843,G5,A,mono-constituent,None,Uncharged
A-1157,"InChI=1S/C10H18O2/c1-4-5-6-7-8-12-10(11)9(2)3/h2,4-8H2,1,3H3",-3.755421034,CCCCCCOC(=O)C(C)=C,0,G1,A,mono-constituent,None,Uncharged
A-1158,InChI=1S/C5HCl4N/c6-2-1-3(7)5(9)10-4(2)8/h1H,-3.861424691,ClC1=CC(Cl)=C(Cl)N=C1Cl,0.06034519,G3,A,mono-constituent,None,Uncharged
A-1160,"InChI=1S/C13H10N2S/c14-13-15-12(8-16-13)11-6-5-9-3-1-2-4-10(9)7-11/h1-8H,(H2,14,15)",-4.849542252,NC1=NC(=CS1)C1=CC2=CC=CC=C2C=C1,0,G1,A,mono-constituent,None,Uncharged
A-1161,"InChI=1S/C14H22O/c1-2-3-5-10-14(12-15)11-13-8-6-4-7-9-13/h4,6-9,14-15H,2-3,5,10-12H2,1H3",-3.843268562,CCCCCC(CO)CC1=CC=CC=C1,0,G1,A,multi-constituent,None,Uncharged
A-1163,"InChI=1S/C10H20O/c1-2-3-4-5-6-7-8-9-10-11/h10H,2-9H2,1H3",-3.725525503,CCCCCCCCCC=O,0,G1,A,mono-constituent,None,Uncharged
A-1165,"InChI=1S/C12H20O2/c1-10(2)6-5-7-11(3)8-9-14-12(4)13/h6,8H,5,7,9H2,1-4H3/b11-8+",-3.830500177,CC(C)=CCCC(C)=CCOC(C)=O,0,G1,A,mono-constituent,None,Uncharged
A-1167,"InChI=1S/C12H20O/c1-4-11(2)7-5-8-12(3)9-6-10-13/h4,8,10-11H,1,5-7,9H2,2-3H3/b12-8+",-3.79357605,CC(CCC=C(C)CCC=O)C=C,0,G1,A,multi-constituent,None,Uncharged
A-1168,"InChI=1S/C3H3F3O2/c1-8-2(7)3(4,5)6/h1H3",-0.647983703,COC(=O)C(F)(F)F,0,G1,A,mono-constituent,None,Uncharged
A-1170,"InChI=1S/C9H10O3/c1-2-12-9-5-7(6-10)3-4-8(9)11/h3-6,11H,2H2,1H3",-1.764202268,CCOC1=CC(C=O)=CC=C1O,0,G1,A,mono-constituent,None,Uncharged
A-1172,"InChI=1S/C10H12O/c1-9(11)7-8-10-5-3-2-4-6-10/h2-6H,7-8H2,1H3",-1.716017996,CC(=O)CCC1=CC=CC=C1,0,G1,A,mono-constituent,None,Uncharged
A-1173,"InChI=1S/C12H14ClNO4/c1-7(15)4-12(16)14-9-6-10(17-2)8(13)5-11(9)18-3/h5-6H,4H2,1-3H3,(H,14,16)",-2.979244778,COC1=CC(NC(=O)CC(C)=O)=C(OC)C=C1Cl,0,G1,A,mono-constituent,None,Uncharged
A-1174,"InChI=1S/C11H12O2/c1-10(12)13-9-5-8-11-6-3-2-4-7-11/h2-8H,9H2,1H3/b8-5+",-2.792724534,CC(=O)OCC=CC1=CC=CC=C1,0.021112999,G3,A,mono-constituent,None,Uncharged
A-1177,"InChI=1S/C32H44O4/c1-20(33)35-25-14-12-21(31(8,9)18-29(2,3)4)16-23(25)27-24-17-22(13-15-26(24)36-28(27)34)32(10,11)19-30(5,6)7/h12-17,27H,18-19H2,1-11H3",-6.692582562,CC(=O)OC1=CC=C(C=C1C1C(=O)OC2=CC=C(C=C12)C(C)(C)CC(C)(C)C)C(C)(C)CC(C)(C)C,0,G1,A,mono-constituent,None,Uncharged
A-1179,"InChI=1S/C21H35N3O4.C3H6O3/c1-6-8-9-17(7-2)15-28-20(25)22-18-11-10-16(3)19(14-18)23-21(26)27-13-12-24(4)5;1-2(4)3(5)6/h10-11,14,17H,6-9,12-13,15H2,1-5H3,(H,22,25)(H,23,26);2,4H,1H3,(H,5,6)",-0.235193825,CCCCC(CC)COC(=O)NC1=CC=C(C)C(NC(=O)OCC[NH+](C)C)=C1,0,G1,A,mono-constituent,Cosolvent Buffer,Positive
A-1181,"InChI=1S/C10H22O/c1-5-9(2)7-6-8-10(3,4)11/h9,11H,5-8H2,1-4H3",-2.749344685,CCC(C)CCCC(C)(C)O,0,G1,A,mono-constituent,None,Uncharged
A-1182,"InChI=1S/C3HCl2N3O3.Na/c4-7-1(9)6-2(10)8(5)3(7)11;/h(H,6,9,10);/q;+1/p-1",-0.895160011,ClN1C(=O)[N-]C(=O)N(Cl)C1=O,0.50793475,G4,A,mono-constituent,None,Negative
A-1185,"InChI=1S/C6H7NO4S/c7-5-3-4(12(9,10)11)1-2-6(5)8/h1-3,8H,7H2,(H,9,10,11)",-1.829744737,NC1=CC(=CC=C1O)S([O-])(=O)=O,0,G1,A,mono-constituent,None,Negative
A-1186,"InChI=1S/C21H30O5/c1-19-7-5-13(23)9-12(19)3-4-14-15-6-8-21(26,17(25)11-22)20(15,2)10-16(24)18(14)19/h9,14-16,18,22,24,26H,3-8,10-11H2,1-2H3/t14-,15-,16-,18+,19-,20-,21-/m0/s1",-3.112109244,CC12CC(O)C3C(CCC4=CC(=O)CCC34C)C1CCC2(O)C(=O)CO,0.029004622,G3,A,mono-constituent,None,Uncharged
A-1188,"InChI=1S/C18H34O2.C2H7NO/c1-2-3-4-5-6-7-8-9-10-11-12-13-14-15-16-17-18(19)20;3-1-2-4/h9-10H,2-8,11-17H2,1H3,(H,19,20);4H,1-3H2/b10-9+;",-3.08883445,CCCCCCCCC=CCCCCCCCC([O-])=O,0,G1,A,None,Cosolvent Buffer,Negative
A-1193,"InChI=1S/C13H24O/c1-10(9-14)5-7-12-8-6-11(2)13(12,3)4/h6,10,12,14H,5,7-9H2,1-4H3",-3.842746406,CC(CO)CCC1CC=C(C)C1(C)C,0,G1,A,multi-constituent,None,Uncharged
A-1196,"InChI=1S/C14H29NO/c1-4-5-6-7-8-9-10-11-12-13-14(16)15(2)3/h4-13H2,1-3H3",-3.909307051,CCCCCCCCCCCC(=O)N(C)C,0,G1,A,mono-constituent,None,Uncharged
A-1197,"InChI=1S/C10H20O/c1-10(2,3)8-4-6-9(11)7-5-8/h8-9,11H,4-7H2,1-3H3",-3.103262125,CC(C)(C)C1CCC(O)CC1,0.16902609,G5,A,multi-constituent,None,Uncharged
A-1199,"InChI=1S/C16H35N/c1-4-5-6-7-8-9-10-11-12-13-14-15-16-17(2)3/h4-16H2,1-3H3",-3.935692561,CCCCCCCCCCCCCC[NH+](C)C,0,G1,A,mono-constituent,None,Positive
A-1203,"InChI=1S/C3H7Cl/c1-2-3-4/h2-3H2,1H3",-1.45340682,CCCCl,1.412541584,G4,A,mono-constituent,None,Uncharged
A-1204,"InChI=1S/2C9H21O2PS2.Zn/c2*1-7(2)6-9(5)11-12(13,14)10-8(3)4;/h2*7-9H,6H2,1-5H3,(H,13,14);/q;;+2/p-2",-2.318974913,CC(C)CC(C)OP([S-])(=S)OC(C)C,0,G1,A,UVCB,None,Negative
A-1205,InChI=1S/C6H4ClNO2/c7-5-2-1-3-6(4-5)8(9)10/h1-4H,-2.7612723,[O-][N+](=O)C1=CC=CC(Cl)=C1,0.07745098,G3,A,mono-constituent,None,PureChargeSeparation
A-1206,"InChI=1S/C12H10O/c1-9(13)11-7-6-10-4-2-3-5-12(10)8-11/h2-8H,1H3",-2.796418719,CC(=O)C1=CC2=CC=CC=C2C=C1,0,G1,A,mono-constituent,None,Uncharged
A-1207,"InChI=1S/C34H27N11O11S3.2Na/c35-19-1-14-27(26(36)17-19)41-38-20-2-4-23(5-3-20)44-57(49,50)25-12-8-22(9-13-25)40-43-33-29(59(54,55)56)16-18-15-28(58(51,52)53)32(31(37)30(18)34(33)46)42-39-21-6-10-24(11-7-21)45(47)48;;/h1-17,44,46H,35-37H2,(H,51,52,53)(H,54,55,56);;/q;2*+1/p-2",-0.525678621,NC1=CC=C(N=NC2=CC=C(NS(=O)(=O)C3=CC=C(NN=C4C(=O)C5=C(N)C(N=NC6=CC=C(C=C6)[N+]([O-])=O)=C(C=C5C=C4S([O-])(=O)=O)S([O-])(=O)=O)C=C3)C=C2)C(N)=C1,0,G1,A,mono-constituent,None,Negative
A-1209,"InChI=1S/C3H6Cl2/c1-3(5)2-4/h3H,2H2,1H3",-1.621664713,CC(Cl)CCl,0.007897134,G3,A,mono-constituent,None,Uncharged
A-1211,"InChI=1S/C8H11N/c1-2-9-8-6-4-3-5-7-8/h3-7,9H,2H2,1H3",-1.652077936,CCNC1=CC=CC=C1,0.024673361,G3,A,mono-constituent,None,Uncharged
A-1212,"InChI=1S/C10H22O/c1-9(2)5-7-11-8-6-10(3)4/h9-10H,5-8H2,1-4H3",-3.760107067,CC(C)CCOCCC(C)C,0.430853533,G3,A,mono-constituent,None,Uncharged
A-1213,"InChI=1S/C25H22ClN5O7S2.Na/c1-31(17-5-3-2-4-6-17)39(34,35)18-11-15-7-9-19(27)25(24(15)21(32)13-18)30-29-20-10-8-16(28-23(33)14-26)12-22(20)40(36,37)38;/h2-13,27,29-30H,14H2,1H3,(H,28,33)(H,36,37,38);/q;+1/p-1",-4.35885707,CN(C1=CC=CC=C1)S(=O)(=O)C1=CC2=CC=C(N)C(N=NC3=CC=C(NC(=O)CCl)C=C3S([O-])(=O)=O)=C2C([O-])=C1,0,G1,A,mono-constituent,None,Negative
A-1214,"InChI=1S/C7H6Cl2/c1-5-2-3-6(8)7(9)4-5/h2-4H,1H3",-3.775545726,CC1=CC=C(Cl)C(Cl)=C1,0.008177137,G3,A,mono-constituent,None,Uncharged
A-1215,"InChI=1S/C14H16N2O4S/c1-19-12-9-14(13(20-2)8-11(12)15)21(17,18)16-10-6-4-3-5-7-10/h3-9,16H,15H2,1-2H3",-4.057692864,COC1=CC(=C(OC)C=C1N)S(=O)(=O)NC1=CC=CC=C1,0,G1,A,mono-constituent,None,Uncharged
A-1219,"InChI=1S/C19H16O4/c1-12(20)11-15(13-7-3-2-4-8-13)17-18(21)14-9-5-6-10-16(14)23-19(17)22/h2-10,15,22H,11H2,1H3",-3.062508747,CC(=O)CC(C1=CC=CC=C1)C1=C([O-])C2=CC=CC=C2OC1=O,1.589309613,G4,A,mono-constituent,Cosolvent Buffer,Negative
A-1220,"InChI=1S/C20H19N3.ClH/c1-13-12-16(6-11-19(13)23)20(14-2-7-17(21)8-3-14)15-4-9-18(22)10-5-15;/h2-12,23H,21-22H2,1H3;1H",-2.105483191,CC1=CC(C=CC1=N)=C(C1=CC=C(N)C=C1)C1=CC=C(N)C=C1,0.25245193,G5,A,None,None,Uncharged
A-1222,"InChI=1S/C12H27O4P/c1-10(2)7-14-17(13,15-8-11(3)4)16-9-12(5)6/h10-12H,7-9H2,1-6H3",-3.002154647,CC(C)COP(=O)(OCC(C)C)OCC(C)C,0,G1,A,mono-constituent,None,Uncharged
A-1225,"InChI=1S/C9H10O2/c1-7-5-3-4-6-8(7)9(10)11-2/h3-6H,1-2H3",-1.756647676,COC(=O)C1=CC=CC=C1C,0,G1,A,mono-constituent,None,Uncharged
A-1226,"InChI=1S/C4H8/c1-4(2)3/h1H2,2-3H3",-2.32906904,CC(C)=C,0,G1,A,mono-constituent,None,Uncharged
A-1227,"InChI=1S/C8H12O4/c1-4-8(12-7(3)10)5-11-6(2)9/h4,8H,1,5H2,2-3H3/t8-/m0/s1",-0.817681412,CC(=O)OCC(OC(C)=O)C=C,0,G1,A,None,None,Uncharged
A-1228,"InChI=1S/C6H7NO/c7-5-2-1-3-6(8)4-5/h1-4,8H,7H2",-0.622962848,NC1=CC=CC(O)=C1,0.06143075,G5,A,None,None,Uncharged
A-1231,"InChI=1S/C23H32N6O4S/c1-5-8-20-24-16(4)21-23(30)25-22(26-29(20)21)18-15-17(9-10-19(18)33-7-3)34(31,32)28-13-11-27(6-2)12-14-28/h9-10,15H,5-8,11-14H2,1-4H3,(H,25,26,30)",-4.843867866,CCCC1=NC(C)=C2N1NC(=NC2=O)C1=CC(=CC=C1OCC)S(=O)(=O)N1CCN(CC)CC1,0,G1,A,mono-constituent,None,Uncharged
A-1232,"InChI=1S/C23H46N2O/c1-4-5-6-7-8-9-10-11-12-13-14-15-16-17-18-20-23(26)24-21-19-22-25(2)3/h11-12H,4-10,13-22H2,1-3H3,(H,24,26)/b12-11+",-4.149259389,CCCCCCCCC=CCCCCCCCC(=O)NCCC[NH+](C)C,0.842698599,G2,A,None,None,Positive
A-1233,"InChI=1S/C7H6Cl2/c1-5-6(8)3-2-4-7(5)9/h2-4H,1H3",-3.791936142,CC1=C(Cl)C=CC=C1Cl,0,G1,A,mono-constituent,None,Uncharged
A-1234,InChI=1S/C12H22O/c13-12-10-8-6-4-2-1-3-5-7-9-11-12/h1-11H2,-3.845829997,O=C1CCCCCCCCCCC1,0.119119583,G3,A,mono-constituent,None,Uncharged
A-1235,"InChI=1S/C10H16O/c1-5-10(4,11)8-6-7-9(2)3/h1,7,11H,6,8H2,2-4H3",-1.772080431,CC(C)=CCCC(C)(O)C#C,0,G1,A,mono-constituent,Non Valid pH,Uncharged
A-1236,"InChI=1S/C8H7NO4/c1-5-2-3-6(8(10)11)4-7(5)9(12)13/h2-4H,1H3,(H,10,11)",-2.848098023,CC1=CC=C(C=C1[N+]([O-])=O)C([O-])=O,0,G1,A,mono-constituent,None,Negative
A-1237,"InChI=1S/C7H9NO4S/c1-12-7-3-2-5(4-6(7)8)13(9,10)11/h2-4H,8H2,1H3,(H,9,10,11)",-0.899724345,COC1=CC=C(C=C1N)S([O-])(=O)=O,0.543010335,G2,A,mono-constituent,None,Negative
A-1239,"InChI=1S/C13H10O3/c14-11-7-6-10(8-12(11)15)13(16)9-4-2-1-3-5-9/h1-8,14-15H",-2.92262005,OC1=CC=C(C=C1O)C(=O)C1=CC=CC=C1,0,G1,A,None,Non Valid pH,Uncharged
A-1240,"InChI=1S/C19H23N4O2S.C2H4O2/c1-4-23(11-12-24)15-7-5-14(6-8-15)20-21-19-22(2)17-10-9-16(25-3)13-18(17)26-19;1-2(3)4/h5-10,13,24H,4,11-12H2,1-3H3;1H3,(H,3,4)/q+1;/p-1",-0.226272691,CCN(CCO)C1=CC=C(C=C1)N=NC1=[N+](C)C2=CC=C(OC)C=C2S1,0,G1,A,mono-constituent,Cosolvent Buffer,Positive
A-1243,"InChI=1S/2C11H20O3/c2*1-4-5-10-8-11(3,6-7-13-10)14-9(2)12/h2*10H,4-8H2,1-3H3/t2*10?,11-/m10/s1",-2.204723233,CCCC1CC(C)(CCO1)OC(C)=O,0,G1,A,None,None,Uncharged
A-1245,"InChI=1S/C8H19N/c1-3-5-6-8(4-2)7-9/h8H,3-7,9H2,1-2H3",-1.713480463,CCCCC(CC)C[NH3+],0,G1,A,mono-constituent,None,Positive
A-1246,"InChI=1S/C7H8ClN/c1-5-2-3-6(9)4-7(5)8/h2-4H,9H2,1H3",-1.753126312,CC1=CC=C(N)C=C1Cl,0.012652933,G3,A,mono-constituent,None,Uncharged
A-1247,"InChI=1S/C15H10O7/c16-6-1-2-8(9(18)3-6)15-14(21)13(20)12-10(19)4-7(17)5-11(12)22-15/h1-5,16-19,21H",-3.082409058,OC1=CC=C(C(O)=C1)C1=C([O-])C(=O)C2=C(O)C=C([O-])C=C2O1,0,G1,A,mono-constituent,None,Negative
A-1252,"InChI=1S/C20H18O3/c1-20(14-2-8-17(21)9-3-14,15-4-10-18(22)11-5-15)16-6-12-19(23)13-7-16/h2-13,21-23H,1H3",-4.086559757,CC(C1=CC=C(O)C=C1)(C1=CC=C(O)C=C1)C1=CC=C(O)C=C1,0,G1,A,mono-constituent,None,Uncharged
A-1254,"InChI=1S/C7H6Cl2/c1-5-2-3-6(8)4-7(5)9/h2-4H,1H3",-3.808969481,CC1=CC=C(Cl)C=C1Cl,0.247425011,G3,A,mono-constituent,None,Uncharged
A-1255,"InChI=1S/C16H22O7S/c1-10-5-7-11(8-6-10)24(17,18)20-9-12-13-14(15(19-4)21-12)23-16(2,3)22-13/h5-8,12-15H,9H2,1-4H3",-4.156442533,COC1OC(COS(=O)(=O)C2=CC=C(C)C=C2)C2OC(C)(C)OC12,0,G1,A,None,None,Uncharged
A-1256,"InChI=1S/C8H10O/c1-7-5-3-4-6-8(7)9-2/h3-6H,1-2H3",-2.689083393,COC1=CC=CC=C1C,0,G1,A,mono-constituent,None,Uncharged
A-1258,"InChI=1S/C8H6Cl2O2/c9-6-2-1-5(3-8(11)12)7(10)4-6/h1-2,4H,3H2,(H,11,12)",-2.91914164,[O-]C(=O)CC1=CC=C(Cl)C=C1Cl,0.088159067,G5,A,mono-constituent,None,Negative
A-1259,"InChI=1S/C15H16O2.C3H5ClO/c1-15(2,11-3-7-13(16)8-4-11)12-5-9-14(17)10-6-12;4-1-3-2-5-3/h3-10,16-17H,1-2H3;3H,1-2H2",-5.029134765,CC(C)(C1=CC=C(O)C=C1)C1=CC=C(O)C=C1,0.032750774,G3,A,UVCB,Cosolvent Buffer,Uncharged
A-1261,"InChI=1S/C3H6O2.Zr/c1-2-3(4)5;/h2H2,1H3,(H,4,5);/q;+4/p-1",-2.823279191,CCC([O-])=O,0.314458581,G3,A,mono-constituent,Non Valid pH,Negative
A-1263,InChI=1S/C7H4ClN/c8-7-3-1-6(5-9)2-4-7/h1-4H,-2.749354496,ClC1=CC=C(C=C1)C#N,0,G1,A,mono-constituent,None,Uncharged
A-1268,InChI=1S/C6H4ClNO2/c7-5-1-3-6(4-2-5)8(9)10/h1-4H,-2.811828673,[O-][N+](=O)C1=CC=C(Cl)C=C1,0.136194237,G5,A,mono-constituent,None,PureChargeSeparation
A-1269,"InChI=1S/C10H12O/c1-8(2)10-5-3-9(7-11)4-6-10/h3-8H,1-2H3",-2.785256582,CC(C)C1=CC=C(C=O)C=C1,0.307196863,G3,A,mono-constituent,None,Uncharged
A-1270,"InChI=1S/C12H18O4/c1-9(2)11(13)15-7-5-6-8-16-12(14)10(3)4/h1,3,5-8H2,2,4H3",-2.969024542,CC(=C)C(=O)OCCCCOC(=O)C(C)=C,0,G1,A,mono-constituent,None,Uncharged
A-1274,"InChI=1S/C9H9ClO/c1-2-9(11)7-4-3-5-8(10)6-7/h3-6H,2H2,1H3",-1.84670557,CCC(=O)C1=CC=CC(Cl)=C1,0,G1,A,mono-constituent,None,Uncharged
A-1275,"InChI=1S/C9H10O2/c1-2-4-8(5-3-1)10-6-9-7-11-9/h1-5,9H,6-7H2",-1.796392183,C(OC1=CC=CC=C1)C1CO1,0,G1,A,mono-constituent,None,Uncharged
A-1276,"InChI=1S/C9H16O4/c10-8(11)6-4-2-1-3-5-7-9(12)13/h1-7H2,(H,10,11)(H,12,13)",-1.894461449,[O-]C(=O)CCCCCCCC([O-])=O,0.062769275,G3,A,mono-constituent,None,Negative
A-1277,InChI=1S/C15H28O3/c16-15-11-7-5-3-1-2-4-6-8-12-17-13-9-10-14-18-15/h1-14H2,-4.0179592,O=C1CCCCCCCCCCOCCCCO1,0,G1,A,mono-constituent,None,Uncharged
A-1280,"InChI=1S/C10H20O/c1-9(2)5-4-6-10(3)7-8-11/h8-10H,4-7H2,1-3H3",-3.806483007,CC(C)CCCC(C)CC=O,0,G1,A,mono-constituent,Non Valid pH,Uncharged
A-1286,"InChI=1S/C13H12N2S/c16-13(14-11-7-3-1-4-8-11)15-12-9-5-2-6-10-12/h1-10H,(H2,14,15,16)",-3.971688427,S=C(NC1=CC=CC=C1)NC1=CC=CC=C1,0.015454242,G5,A,mono-constituent,None,Uncharged
A-1287,"InChI=1S/C18H24O2/c1-18-9-8-14-13-5-3-12(19)10-11(13)2-4-15(14)16(18)6-7-17(18)20/h14-16H,2-10H2,1H3/t14-,15-,16+,18+/m1/s1",-4.054976729,CC12CCC3C(CCC4=C3CCC(=O)C4)C1CCC2=O,0.009241703,G3,A,mono-constituent,None,Uncharged
A-1288,"InChI=1S/C3H7Br/c1-2-3-4/h2-3H2,1H3",-1.710756249,CCCBr,0.014259394,G5,A,mono-constituent,None,Uncharged
A-1289,"InChI=1S/C7H7ClO/c1-9-7-4-2-6(8)3-5-7/h2-5H,1H3",-2.779325494,COC1=CC=C(Cl)C=C1,0,G1,A,mono-constituent,None,Uncharged
A-1290,"InChI=1S/C22H29FO4/c1-11-6-14-13-8-16(23)15-7-12(25)4-5-21(15,2)20(13)17(26)9-22(14,3)19(11)18(27)10-24/h4-5,7,11,13-14,16-17,19-20,24,26H,6,8-10H2,1-3H3/t11-,13+,14+,16+,17+,19-,20-,21+,22+/m1/s1",-3.203737155,CC1CC2C3CC(F)C4=CC(=O)C=CC4(C)C3C(O)CC2(C)C1C(=O)CO,0.062858802,G5,A,mono-constituent,None,Uncharged
A-1291,"InChI=1S/C18H15N3O3S.Na/c22-25(23,24)18-8-4-7-17(13-18)21-20-16-11-9-15(10-12-16)19-14-5-2-1-3-6-14;/h1-13,19H,(H,22,23,24);/q;+1/p-1",-1.204686091,[O-]S(=O)(=O)C1=CC=CC(=C1)N=NC1=CC=C(NC2=CC=CC=C2)C=C1,0,G1,A,mono-constituent,None,Negative
A-1292,"InChI=1S/C14H14N2O/c1-15-14(17)16(12-8-4-2-5-9-12)13-10-6-3-7-11-13/h2-11H,1H3,(H,15,17)",-2.983946158,CNC(=O)N(C1=CC=CC=C1)C1=CC=CC=C1,0,G1,A,mono-constituent,None,Uncharged
A-1293,"InChI=1S/C12H11N/c13-12-9-5-4-8-11(12)10-6-2-1-3-7-10/h1-9H,13H2",-2.861113735,NC1=CC=CC=C1C1=CC=CC=C1,0,G1,A,mono-constituent,None,Uncharged
A-1294,"InChI=1S/C13H24Cl6O8P2/c14-1-5-22-28(20,23-6-2-15)26-11-13(9-18,10-19)12-27-29(21,24-7-3-16)25-8-4-17/h1-12H2",-3.400175355,ClCCOP(=O)(OCCCl)OCC(CCl)(CCl)COP(=O)(OCCCl)OCCCl,0,G1,A,mono-constituent,None,Uncharged
A-1295,"InChI=1S/C8H12O4/c9-7(10)5-1-2-6(4-3-5)8(11)12/h5-6H,1-4H2,(H,9,10)(H,11,12)",-0.872370724,[O-]C(=O)C1CCC(CC1)C([O-])=O,0,G1,A,multi-constituent,None,Negative
A-1298,"InChI=1S/C12H15NO/c1-2-9-4-3-5-11-10(6-7-14)8-13-12(9)11/h3-5,8,13-14H,2,6-7H2,1H3",-1.91532641,CCC1=C2NC=C(CCO)C2=CC=C1,0,G1,A,None,Non Valid pH,Uncharged
A-1302,"InChI=1S/C14H26O2/c1-7-14(6,11-9-10-12(3)4)16-13(5)15-8-2/h7,10,13H,1,8-9,11H2,2-6H3",-3.976401784,CCOC(C)OC(C)(CCC=C(C)C)C=C,0,G1,A,mono-constituent,None,Uncharged
A-1304,InChI=1S/C13H10O/c14-13(11-7-3-1-4-8-11)12-9-5-2-6-10-12/h1-10H,-3.882202908,O=C(C1=CC=CC=C1)C1=CC=CC=C1,0.379151454,G3,A,mono-constituent,None,Uncharged
A-1305,"InChI=1S/C12H22O2/c1-3-7-12(13)14-10(2)11-8-5-4-6-9-11/h10-11H,3-9H2,1-2H3",-3.920758898,CCCC(=O)OC(C)C1CCCCC1,0,G1,A,mono-constituent,None,Uncharged
A-1306,"InChI=1S/C20H26O3/c1-3-20(18(21)9-10-19(20)22)12-11-14-5-4-6-15-13-16(23-2)7-8-17(14)15/h7-8,11,13,18,21H,3-6,9-10,12H2,1-2H3",-4.122768724,CCC1(CC=C2CCCC3=CC(OC)=CC=C23)C(O)CCC1=O,0,G1,A,mono-constituent,None,Uncharged
A-1308,"InChI=1S/C10H14/c1-3-9(2)10-7-5-4-6-8-10/h4-9H,3H2,1-2H3",-3.758607848,CCC(C)C1=CC=CC=C1,0.264323878,G5,A,None,None,Uncharged
A-1309,"InChI=1S/C22H17N3O6S.Na/c1-11(26)24-12-5-4-6-13(9-12)25-16-10-17(32(29,30)31)20(23)19-18(16)21(27)14-7-2-3-8-15(14)22(19)28;/h2-10,25H,23H2,1H3,(H,24,26)(H,29,30,31);/q;+1/p-1",-4.307910861,CC(=O)NC1=CC=CC(NC2=CC(=C(N)C3=C2C(=O)C2=CC=CC=C2C3=O)S([O-])(=O)=O)=C1,0.054838673,G3,A,mono-constituent,None,Negative
A-1311,"InChI=1S/C12H20O2/c1-9-5-7-11(8-6-9)12(3,4)14-10(2)13/h5,11H,6-8H2,1-4H3",-3.931170339,CC(=O)OC(C)(C)C1CCC(C)=CC1,0,G1,A,mono-constituent,None,Uncharged
A-1312,"InChI=1S/C15H26O/c1-6-15(5,16)12-8-11-14(4)10-7-9-13(2)3/h6,9,11,16H,1,7-8,10,12H2,2-5H3/b14-11+",-3.985352266,CC(C)=CCCC(C)=CCCC(C)(O)C=C,0.106254362,G3,A,multi-constituent,None,Uncharged
A-1313,"InChI=1S/C14H22O4/c1-11(2)13(15)17-9-7-5-6-8-10-18-14(16)12(3)4/h1,3,5-10H2,2,4H3",-4.043662925,CC(=C)C(=O)OCCCCCCOC(=O)C(C)=C,0,G1,A,mono-constituent,None,Uncharged
A-1315,"InChI=1S/C7H6F3N/c8-7(9,10)5-1-3-6(11)4-2-5/h1-4H,11H2",-2.847330143,NC1=CC=C(C=C1)C(F)(F)F,0,G1,A,mono-constituent,Non Valid pH,Uncharged
A-1317,"InChI=1S/C13H22N.ClH/c1-4-14(5-2,6-3)12-13-10-8-7-9-11-13;/h7-11H,4-6,12H2,1-3H3;1H/q+1;/p-1",-0.007265664,CC[N+](CC)(CC)CC1=CC=CC=C1,0.224546266,G3,A,mono-constituent,None,Positive
A-1322,"InChI=1S/C10H18O4.2Na/c11-9(12)7-5-3-1-2-4-6-8-10(13)14;;/h1-8H2,(H,11,12)(H,13,14);;/q;2*+1/p-2",-3.041064725,[O-]C(=O)CCCCCCCCC([O-])=O,1.474084181,G2,A,mono-constituent,None,Negative
A-1325,"InChI=1S/C12H22O4/c1-4-5-6-14-7-8-15-9-10-16-12(13)11(2)3/h2,4-10H2,1,3H3",-2.015948507,CCCCOCCOCCOC(=O)C(C)=C,0.030943495,G3,A,mono-constituent,None,Uncharged
A-1327,"InChI=1S/C15H10F6O2/c16-14(17,18)13(15(19,20)21,9-1-5-11(22)6-2-9)10-3-7-12(23)8-4-10/h1-8,22-23H",-3.179502969,OC1=CC=C(C=C1)C(C1=CC=C(O)C=C1)(C(F)(F)F)C(F)(F)F,0,G1,A,mono-constituent,None,Uncharged
A-1328,"InChI=1S/C12H10O/c1-9(13)11-8-4-6-10-5-2-3-7-12(10)11/h2-8H,1H3",-2.884634649,CC(=O)C1=CC=CC2=CC=CC=C12,0,G1,A,mono-constituent,None,Uncharged
A-1329,"InChI=1S/C9H13N/c1-7(2)8-3-5-9(10)6-4-8/h3-7H,10H2,1-2H3",-1.785831196,CC(C)C1=CC=C(N)C=C1,0,G1,A,mono-constituent,None,Uncharged
A-1333,"InChI=1S/C7H9NO/c1-9-7-4-2-6(8)3-5-7/h2-5H,8H2,1H3",-0.748029368,COC1=CC=C(N)C=C1,0.010101693,G3,A,mono-constituent,None,Uncharged
A-1334,"InChI=1S/C5H12O/c1-2-3-4-5-6/h6H,2-5H2,1H3",-0.602799636,CCCCCO,0.010101693,G3,A,mono-constituent,None,Uncharged
A-1335,"InChI=1S/C7H8N2O3/c1-12-7-3-2-5(9(10)11)4-6(7)8/h2-4H,8H2,1H3",-1.883279356,COC1=CC=C(C=C1N)[N+]([O-])=O,0.64086242,G2,A,mono-constituent,None,PureChargeSeparation
A-1336,"InChI=1S/C7H10O2/c1-4-5-9-7(8)6(2)3/h4H,1-2,5H2,3H3",-1.758481787,CC(=C)C(=O)OCC=C,0.00804341,G3,A,mono-constituent,None,Uncharged
A-1337,"InChI=1S/C4F8I2/c5-1(6,3(9,10)13)2(7,8)4(11,12)14",-3.314476262,FC(F)(I)C(F)(F)C(F)(F)C(F)(F)I,0,G1,A,mono-constituent,None,Uncharged