ID,InChI,Solubility,SMILEScurated,SD,Group,Dataset,Composition,Error,Charge
B-2399,"InChI=1S/C10H18O5/c1-4-5-6-14-10(13)8(3)15-9(12)7(2)11/h7-8,11H,4-6H2,1-3H3",-1.3752,CCCCOC(=O)C(C)OC(=O)C(C)O,0,G1,B,None,None,Uncharged
B-2400,"InChI=1S/C3H8N4O2/c4-2(8)6-1-7-3(5)9/h1H2,(H3,4,6,8)(H3,5,7,9)",-0.6525,NC(=O)NCNC(N)=O,0,G1,B,None,None,Uncharged
B-2401,"InChI=1S/C4H11NO/c1-2-4(6)3-5/h4,6H,2-3,5H2,1H3",1.0499,CCC(O)C[NH3+],0,G1,B,None,None,Positive
B-2402,"InChI=1S/C18H12Cl12/c19-9-10(20)15(25)7-3-4-8-6(2-1-5(7)13(9,23)17(15,27)28)14(24)11(21)12(22)16(8,26)18(14,29)30/h5-8H,1-4H2",-13.1719,ClC1=C(Cl)C2(Cl)C3CCC4C(CCC3C1(Cl)C2(Cl)Cl)C1(Cl)C(Cl)=C(Cl)C4(Cl)C1(Cl)Cl,0,G1,B,None,None,Uncharged
B-2403,"InChI=1S/C12H15N2O3PS/c1-3-15-18(19,16-4-2)17-12-9-13-10-7-5-6-8-11(10)14-12/h5-9H,3-4H2,1-2H3",-4.1322,CCOP(=S)(OCC)OC1=NC2=CC=CC=C2N=C1,0,G1,B,None,None,Uncharged
B-2404,"InChI=1S/C6H5NO3/c8-6(9)5-1-3-7(10)4-2-5/h1-4H,(H,8,9)",-1.102,[O-]C(=O)C1=CC=[N+]([O-])C=C1,0,G1,B,None,None,Negative
B-2405,"InChI=1S/C8H17N/c1-2-4-8-5-3-6-9-7-8/h8-9H,2-7H2,1H3",-1.011,CCCC1CCC[NH2+]C1,0,G1,B,None,None,Positive
B-2406,"InChI=1S/C9H18Cl3O4P/c1-7(4-10)14-17(13,15-8(2)5-11)16-9(3)6-12/h7-9H,4-6H2,1-3H3",-2.4361,CC(CCl)OP(=O)(OC(C)CCl)OC(C)CCl,0.072139215,G5,B,None,None,Uncharged
B-2410,"InChI=1S/C23H27ClO4/c1-13(25)23(28-14(2)26)10-7-18-16-12-20(24)19-11-15(27)5-8-21(19,3)17(16)6-9-22(18,23)4/h5,8,11-12,16-18H,6-7,9-10H2,1-4H3",-4.9453,CC(=O)OC1(CCC2C3C=C(Cl)C4=CC(=O)C=CC4(C)C3CCC12C)C(C)=O,0,G1,B,None,None,Uncharged
B-2411,"InChI=1S/C11H13N5O5/c12-15-13-5-10(18)14-9(6-17)11(19)7-1-3-8(4-2-7)16(20)21/h1-4,9,11,17,19H,5-6H2,(H,14,18)/t9-,11-/m1/s1",-1.1692,OCC(NC(=O)C[N-][N+]#N)C(O)C1=CC=C(C=C1)[N+]([O-])=O,0,G1,B,None,None,PureChargeSeparation
B-2412,"InChI=1S/C4H11N/c1-3-4(2)5/h4H,3,5H2,1-2H3",0.1851,CCC(C)[NH3+],0,G1,B,None,None,Positive
B-2413,"InChI=1S/C4H5BrO2/c5-3-1-2-4(6)7/h1-2H,3H2,(H,6,7)/b2-1+",-0.7403,[O-]C(=O)C=CCBr,0,G1,B,None,None,Negative
B-2414,"InChI=1S/C15H13NO2S/c1-16-11-4-2-3-5-13(11)19-14-7-6-10(8-12(14)16)9-15(17)18/h2-8H,9H2,1H3,(H,17,18)",-3.9422,CN1C2=CC=CC=C2SC2=CC=C(CC([O-])=O)C=C12,0,G1,B,None,None,Negative
B-2415,"InChI=1S/C12H16N2O3/c1-3-5-7-12(8-6-4-2)9(15)13-11(17)14-10(12)16/h3-6H,7-8H2,1-2H3,(H2,13,14,15,16,17)/b5-3+,6-4+",-2.1973,CC=CCC1(CC=CC)C(=O)NC(=O)NC1=O,0,G1,B,None,None,Uncharged
B-2416,"InChI=1S/C10H14O7/c1-4-5(10(15)16)2-7(17-4)9(14)8(13)6(12)3-11/h2,6,8-9,11-14H,3H2,1H3,(H,15,16)/p-1/t6-,8-,9+/m1/s1",-1.2774,CC1=C(C=C(O1)C(O)C(O)C(O)CO)C([O-])=O,0,G1,B,None,None,Negative
B-2418,"InChI=1S/C8H9N5/c1-13(2)8-6-7(11-5-12-8)10-4-3-9-6/h3-5H,1-2H3",-1.0216,CN(C)C1=NC=NC2=NC=CN=C12,0,G1,B,None,None,Uncharged
B-2419,"InChI=1S/C6H12O3/c1-3-9-5-4-6(7)8-2/h3-5H2,1-2H3",-0.0719,CCOCCC(=O)OC,0,G1,B,None,None,Uncharged
B-2420,"InChI=1S/C9H18O3/c1-3-5-7-12-9(10)6-8-11-4-2/h3-8H2,1-2H3",-1.6391,CCCCOC(=O)CCOCC,0,G1,B,None,None,Uncharged
B-2421,"InChI=1S/C10H20O3/c1-3-5-6-8-13-10(11)7-9-12-4-2/h3-9H2,1-2H3",-2.1956,CCCCCOC(=O)CCOCC,0,G1,B,None,None,Uncharged
B-2422,"InChI=1S/C11H22O3/c1-3-5-6-7-9-14-11(12)8-10-13-4-2/h3-10H2,1-2H3",-2.8289,CCCCCCOC(=O)CCOCC,0,G1,B,None,None,Uncharged
B-2423,"InChI=1S/C7H14O3/c1-3-5-10-6-4-7(8)9-2/h3-6H2,1-2H3",-0.6334,CCCOCCC(=O)OC,0,G1,B,None,None,Uncharged
B-2424,"InChI=1S/C9H18O3/c1-3-6-11-8-5-9(10)12-7-4-2/h3-8H2,1-2H3",-1.6848,CCCOCCC(=O)OCCC,0,G1,B,None,None,Uncharged
B-2425,"InChI=1S/C11H22O3/c1-3-5-8-13-10-7-11(12)14-9-6-4-2/h3-10H2,1-2H3",-2.4029,CCCCOCCC(=O)OCCCC,0,G1,B,None,None,Uncharged
B-2427,"InChI=1S/C20H24O6/c1-2-6-18-17(5-1)23-13-9-21-11-15-25-19-7-3-4-8-20(19)26-16-12-22-10-14-24-18/h1-8H,9-16H2",-4.6935,C1COC2=CC=CC=C2OCCOCCOC2=CC=CC=C2OCCO1,0,G1,B,None,None,Uncharged
B-2428,"InChI=1S/C16H18N2O3/c1-18(2)16(19)17-12-4-6-14(7-5-12)21-15-10-8-13(20-3)9-11-15/h4-11H,1-3H3,(H,17,19)",-4.1558,COC1=CC=C(OC2=CC=C(NC(=O)N(C)C)C=C2)C=C1,0,G1,B,None,None,Uncharged
B-2429,"InChI=1S/C15H7Cl2F3N2O2/c16-9-6-11-12(7-10(9)17)22(13(21-11)15(18,19)20)14(23)24-8-4-2-1-3-5-8/h1-7H",-4.4603,FC(F)(F)C1=NC2=CC(Cl)=C(Cl)C=C2N1C(=O)OC1=CC=CC=C1,0,G1,B,None,None,Uncharged
B-2431,"InChI=1S/C7H14N2O3/c1-4(2)6(8)7(12)9-3-5(10)11/h4,6H,3,8H2,1-2H3,(H,9,12)(H,10,11)",0.4579,CC(C)C([NH3+])C(=O)NCC([O-])=O,0,G1,B,None,None,Zwitterion
B-2432,"InChI=1S/C12H16N2O2/c1-13(2)11(15)9-6-5-7-10(8-9)12(16)14(3)4/h5-8H,1-4H3",0.487,CN(C)C(=O)C1=CC(=CC=C1)C(=O)N(C)C,0,G1,B,None,None,Uncharged
B-2433,"InChI=1S/C8H14O4Se2/c9-7(10)3-1-5-13-14-6-2-4-8(11)12/h1-6H2,(H,9,10)(H,11,12)",-2.2471,[O-]C(=O)CCC[Se][Se]CCCC([O-])=O,0,G1,B,None,None,Negative
B-2434,"InChI=1S/C10H11ClO3/c1-2-13-10(12)7-14-9-5-3-8(11)4-6-9/h3-6H,2,7H2,1H3",-2.4206,CCOC(=O)COC1=CC=C(Cl)C=C1,0,G1,B,None,None,Uncharged
B-2435,"InChI=1S/C10H10Cl2O2/c1-14-10(13)9(12)6-7-2-4-8(11)5-3-7/h2-5,9H,6H2,1H3",-3.7655,COC(=O)C(Cl)CC1=CC=C(Cl)C=C1,0,G1,B,None,None,Uncharged
B-2436,"InChI=1S/C11H10N2O/c1-9-5-2-3-6-10(9)14-11-7-4-8-12-13-11/h2-8H,1H3",-1.969,CC1=CC=CC=C1OC1=CC=CN=N1,0,G1,B,None,None,Uncharged
B-2437,"InChI=1S/C9H9N3O2/c1-11-8(13)10-12(9(11)14)7-5-3-2-4-6-7/h2-6H,1H3,(H,10,13)",-2.9804,CN1C(=O)NN(C1=O)C1=CC=CC=C1,0,G1,B,None,None,Uncharged
B-2438,"InChI=1S/C10H11NO2/c1-2-7-13-9-6-4-3-5-8(9)10(11)12/h2-6H,1,7H2,(H2,11,12)",-2.2273,NC(=O)C1=CC=CC=C1OCC=C,0,G1,B,None,None,Uncharged
B-2441,"InChI=1S/C7H12N2O2/c1-4(2)6-7(11)8-3-5(10)9-6/h4,6H,3H2,1-2H3,(H,8,11)(H,9,10)",-0.8926,CC(C)C1NC(=O)CNC1=O,0,G1,B,None,None,Uncharged
B-2443,"InChI=1S/C8H18O/c1-4-6-7(3)8(9)5-2/h7-9H,4-6H2,1-3H3",-1.9636,CCCC(C)C(O)CC,0,G1,B,None,None,Uncharged
B-2444,"InChI=1S/C11H20O2/c1-9(2)5-7-11(12-9)8-6-10(3,4)13-11/h5-8H2,1-4H3",-1.9644,CC1(C)CCC2(CCC(C)(C)O2)O1,0,G1,B,None,None,Uncharged
B-2445,"InChI=1S/C12H10O4S/c13-9-5-1-3-7-11(9)17(15,16)12-8-4-2-6-10(12)14/h1-8,13-14H",-3.3192,[O-]C1=CC=CC=C1S(=O)(=O)C1=CC=CC=C1[O-],0,G1,B,None,None,Negative
B-2446,"InChI=1S/C12H14N2O2/c13-7-4-8-14-11(12(15)16)9-10-5-2-1-3-6-10/h1-3,5-6,11,14H,4,8-9H2,(H,15,16)/t11-/m0/s1",-1.4939,[O-]C(=O)C(CC1=CC=CC=C1)[NH2+]CCC#N,0,G1,B,None,None,Zwitterion
B-2447,InChI=1S/C3H3Cl5/c4-1(2(5)6)3(7)8/h1-3H,-2.7223,ClC(Cl)C(Cl)C(Cl)Cl,0,G1,B,None,None,Uncharged
B-2448,"InChI=1S/C9H9Cl2NO3/c10-5-1-4(2-6(11)8(5)13)3-7(12)9(14)15/h1-2,7,13H,3,12H2,(H,14,15)",-1.7546,[NH3+]C(CC1=CC(Cl)=C([O-])C(Cl)=C1)C([O-])=O,0,G1,B,None,None,Zwitterion
B-2449,"InChI=1S/C12H13NO6/c14-9(15)6-12(19,7-10(16)17)11(18)13-8-4-2-1-3-5-8/h1-5,19H,6-7H2,(H,13,18)(H,14,15)(H,16,17)",-0.4874,OC(CC([O-])=O)(CC([O-])=O)C(=O)NC1=CC=CC=C1,0,G1,B,None,None,Negative
B-2450,"InChI=1S/C8H7IO3/c1-12-8(11)5-2-3-7(10)6(9)4-5/h2-4,10H,1H3",-3.3138,COC(=O)C1=CC=C(O)C(I)=C1,0,G1,B,None,None,Uncharged
B-2451,"InChI=1S/C9H9IO3/c1-2-13-9(12)6-3-4-8(11)7(10)5-6/h3-5,11H,2H2,1H3",-3.4924,CCOC(=O)C1=CC=C(O)C(I)=C1,0,G1,B,None,None,Uncharged
B-2452,"InChI=1S/C10H11IO3/c1-2-5-14-10(13)7-3-4-9(12)8(11)6-7/h3-4,6,12H,2,5H2,1H3",-3.6865,CCCOC(=O)C1=CC=C(O)C(I)=C1,0,G1,B,None,None,Uncharged
B-2453,"InChI=1S/C11H13IO3/c1-2-3-6-15-11(14)8-4-5-10(13)9(12)7-8/h4-5,7,13H,2-3,6H2,1H3",-3.9033,CCCCOC(=O)C1=CC=C(O)C(I)=C1,0,G1,B,None,None,Uncharged
B-2454,"InChI=1S/C9H8Cl2O3/c1-5(9(12)13)14-8-3-2-6(10)4-7(8)11/h2-5H,1H3,(H,12,13)/t5-/m1/s1",-2.6003,CC(OC1=CC=C(Cl)C=C1Cl)C([O-])=O,0,G1,B,None,None,Negative
B-2455,"InChI=1S/C10H12ClN3O2/c1-13-10(15)16-14-9-7-3-5(8(9)11)2-6(7)4-12/h5-8H,2-3H2,1H3,(H,13,15)/b14-9-/t5?,6-,7?,8+/m1/s1",-2.0822,CNC(=O)ON=C1C(Cl)C2CC(C#N)C1C2,0,G1,B,None,None,Uncharged
B-2456,"InChI=1S/C17H21NO2/c1-4-18(5-2)17(19)13(3)20-16-12-8-10-14-9-6-7-11-15(14)16/h6-13H,4-5H2,1-3H3",-3.5702,CCN(CC)C(=O)C(C)OC1=CC=CC2=CC=CC=C12,0.0149,G3,B,None,None,Uncharged
B-2458,"InChI=1S/C13H10INO/c14-12-9-5-4-8-11(12)13(16)15-10-6-2-1-3-7-10/h1-9H,(H,15,16)",-4.2084,IC1=CC=CC=C1C(=O)NC1=CC=CC=C1,0,G1,B,None,None,Uncharged
B-2459,"InChI=1S/C8H7NO5/c10-3-5-6(9(11)12)1-2-7-8(5)14-4-13-7/h1-2,10H,3-4H2",-3.0643,OCC1=C2OCOC2=CC=C1[N+]([O-])=O,0,G1,B,None,None,PureChargeSeparation
B-2460,"InChI=1S/C13H7F3N2O5/c14-13(15,16)8-1-6-12(11(7-8)18(21)22)23-10-4-2-9(3-5-10)17(19)20/h1-7H",-5.2151,[O-][N+](=O)C1=CC=C(OC2=CC=C(C=C2[N+]([O-])=O)C(F)(F)F)C=C1,0,G1,B,None,None,PureChargeSeparation
B-2461,"InChI=1S/C3H8N2OS/c1-4-7-3-5-2-6/h4-6H,2H2,1H3",-0.0798,CN=SC=NCO,0,G1,B,None,None,Uncharged
B-2462,"InChI=1S/C5H7NO2/c1-4(3-6)8-5(2)7/h4H,1-2H3",0.2475,CC(OC(C)=O)C#N,0,G1,B,None,None,Uncharged
B-2463,InChI=1S/2ClH.2H3N.Pt/h2*1H;2*1H3;/q;;;;+2/p-2,-2.0741,[Cl-].[Cl-].[Pt++],0,G1,B,None,None,Negative
B-2465,"InChI=1S/C8H6N2O2/c11-7-8(12)10-6-4-2-1-3-5(6)9-7/h1-4H,(H,9,11)(H,10,12)",-2.812,[O-]C1=[NH+]C2=CC=CC=C2NC1=O,0,G1,B,None,None,Zwitterion
B-2466,"InChI=1S/C10H22/c1-5-7-9-10(3,4)8-6-2/h5-9H2,1-4H3",-4.8108,CCCCC(C)(C)CCC,0,G1,B,None,None,Uncharged
B-2468,"InChI=1S/C4H6O4S4/c5-3(6)1-9-11-12-10-2-4(7)8/h1-2H2,(H,5,6)(H,7,8)",-1.452,[O-]C(=O)CSSSSCC([O-])=O,0,G1,B,None,None,Negative
B-2469,"InChI=1S/C7H15NO3/c1-2-3-4-10-5-6-11-7(8)9/h2-6H2,1H3,(H2,8,9)",-0.5084,CCCCOCCOC(N)=O,0,G1,B,None,None,Uncharged
B-2470,"InChI=1S/C7H3Cl5O/c8-3-2(1-13)4(9)6(11)7(12)5(3)10/h13H,1H2",-5.1467,OCC1=C(Cl)C(Cl)=C(Cl)C(Cl)=C1Cl,0,G1,B,None,None,Uncharged
B-2472,"InChI=1S/C4H5ClO4/c5-2(4(8)9)1-3(6)7/h2H,1H2,(H,6,7)(H,8,9)",0.0767,[O-]C(=O)CC(Cl)C([O-])=O,0,G1,B,None,None,Negative
B-2473,"InChI=1S/C12H16N2O3/c1-3-13-11(15)9(2)17-12(16)14-10-7-5-4-6-8-10/h4-9H,3H2,1-2H3,(H,13,15)(H,14,16)/t9-/m0/s1",-1.8293,CCNC(=O)C(C)OC(=O)NC1=CC=CC=C1,0,G1,B,None,None,Uncharged
B-2474,"InChI=1S/C10H23O3P/c1-4-7-8-9-10-14(11,12-5-2)13-6-3/h4-10H2,1-3H3",-2.5687,CCCCCCP(=O)(OCC)OCC,0,G1,B,None,None,Uncharged
B-2475,"InChI=1S/C13H12N2O/c16-12-8-10-4-2-1-3-9(10)7-11(12)13-14-5-6-15-13/h1-4,7-8,16H,5-6H2,(H,14,15)",-3.3015,[O-]C1=CC2=CC=CC=C2C=C1C1=[NH+]CCN1,0,G1,B,None,None,Zwitterion
B-2476,"InChI=1S/C7H7IO/c1-5-2-3-7(9)6(8)4-5/h2-4,9H,1H3",-2.4662,CC1=CC=C(O)C(I)=C1,0,G1,B,None,None,Uncharged
B-2477,"InChI=1S/C11H10O4/c1-8(12)15-10-5-3-2-4-9(10)6-7-11(13)14/h2-7H,1H3,(H,13,14)/b7-6+",-3.1559,CC(=O)OC1=CC=CC=C1C=CC([O-])=O,0,G1,B,None,None,Negative
B-2479,"InChI=1S/C9H9ClO3/c1-2-13-9(12)6-3-4-8(11)7(10)5-6/h3-5,11H,2H2,1H3",-3.2232,CCOC(=O)C1=CC=C(O)C(Cl)=C1,0,G1,B,None,None,Uncharged
B-2480,"InChI=1S/C11H20N2O5/c1-6(2)5-7(12)10(16)13-8(11(17)18)3-4-9(14)15/h6-8H,3-5,12H2,1-2H3,(H,13,16)(H,14,15)(H,17,18)/t7-,8-/m0/s1",-0.8969,CC(C)CC([NH3+])C(=O)NC(CCC([O-])=O)C([O-])=O,0,G1,B,None,None,Zwitterion
B-2481,"InChI=1S/C5H10N2O2/c1-3-4-5(8)7(2)6-9/h3-4H2,1-2H3",-1.5347,CCCC(=O)N(C)N=O,0,G1,B,None,None,Uncharged
B-2482,"InChI=1S/C10H11ClO3/c1-6-5-8(11)3-4-9(6)14-7(2)10(12)13/h3-5,7H,1-2H3,(H,12,13)/t7-/m1/s1",-2.3972,CC(OC1=CC=C(Cl)C=C1C)C([O-])=O,0,G1,B,None,None,Negative
B-2483,"InChI=1S/C3H4ClNO/c1-2(4)3(5)6/h1H2,(H2,5,6)",-0.2104,NC(=O)C(Cl)=C,0,G1,B,None,None,Uncharged
B-2484,"InChI=1S/C5H8O/c1-2-6-5-3-4-5/h2,5H,1,3-4H2",-1.1001,C=COC1CC1,0,G1,B,None,None,Uncharged
B-2485,"InChI=1S/C11H19N3O2/c1-11(9(15)12-10(16)13-11)5-8-14-6-3-2-4-7-14/h2-8H2,1H3,(H2,12,13,15,16)",-0.8213,CC1(CC[NH+]2CCCCC2)NC(=O)NC1=O,0,G1,B,None,None,Positive
B-2486,"InChI=1S/C14H22O7/c1-7(15)17-10-9(8-6-16-13(2,3)19-8)18-12-11(10)20-14(4,5)21-12/h8-12H,6H2,1-5H3/t8-,9-,10+,11-,12-/m1/s1",-1.5229,CC(=O)OC1C(OC2OC(C)(C)OC12)C1COC(C)(C)O1,0,G1,B,None,None,Uncharged
B-2487,"InChI=1S/C4H5N3OS/c5-7-3(8)4-6-1-2-9-4/h1-2H,5H2,(H,7,8)",-0.6787,NNC(=O)C1=NC=CS1,0,G1,B,None,None,Uncharged
B-2488,"InChI=1S/C5H10N2O2S/c1-4(10-3)7-9-5(8)6-2/h1-3H3,(H,6,8)/b7-4+",-0.4466,CNC(=O)ON=C(C)SC,0,G1,B,None,None,Uncharged
B-2489,"InChI=1S/C8H7Cl3O2/c1-12-5-3-4(9)6(10)7(11)8(5)13-2/h3H,1-2H3",-4.3701,COC1=CC(Cl)=C(Cl)C(Cl)=C1OC,0,G1,B,None,None,Uncharged
B-2490,"InChI=1S/C7H7ClO2/c1-10-7-4-5(8)2-3-6(7)9/h2-4,9H,1H3",-1.5013,COC1=CC(Cl)=CC=C1O,0,G1,B,None,None,Uncharged
B-2491,"InChI=1S/C8H8N4O2S2/c9-6-1-3-7(4-2-6)16(13,14)12-8-11-10-5-15-8/h1-5H,9H2,(H,11,12)",-2.8684,NC1=CC=C(C=C1)S(=O)(=O)[N-]C1=NN=CS1,0,G1,B,None,None,Negative
B-2492,"InChI=1S/C9H14O4/c1-3-12-8(11)6-9(2)5-4-7(10)13-9/h3-6H2,1-2H3",-0.7472,CCOC(=O)CC1(C)CCC(=O)O1,0,G1,B,None,None,Uncharged
B-2493,"InChI=1S/C12H14O4/c1-2-9(11(13)14)10(12(15)16)8-6-4-3-5-7-8/h3-7,9-10H,2H2,1H3,(H,13,14)(H,15,16)",-2.3256,CCC(C(C([O-])=O)C1=CC=CC=C1)C([O-])=O,0,G1,B,None,None,Negative
B-2494,"InChI=1S/C13H9Cl2NO2/c14-9-6-7-11(12(15)8-9)13(17)16(18)10-4-2-1-3-5-10/h1-8,18H",-3.6723,ON(C(=O)C1=CC=C(Cl)C=C1Cl)C1=CC=CC=C1,0,G1,B,None,None,Uncharged
B-2495,"InChI=1S/C7H6N4S/c1-12-7-10-4-5-6(11-7)9-3-2-8-5/h2-4H,1H3",-1.7561,CSC1=NC2=NC=CN=C2C=N1,0.30195,G3,B,None,None,Uncharged
B-2496,"InChI=1S/C7H9BrN2O3/c1-3(2)7(8)4(11)9-6(13)10-5(7)12/h3H,1-2H3,(H2,9,10,11,12,13)",-2.2088,CC(C)C1(Br)C(=O)NC(=O)[N-]C1=O,0,G1,B,None,None,Negative
B-2497,"InChI=1S/C6H8N2O4S2/c7-13(9,10)5-1-2-6(4-3-5)14(8,11)12/h1-4H,(H2,7,9,10)(H2,8,11,12)",-2.5283,NS(=O)(=O)C1=CC=C(C=C1)S(N)(=O)=O,0,G1,B,None,None,Uncharged
B-2498,"InChI=1S/C12H20N2O3/c1-3-5-7-12(8-6-4-2)9(15)13-11(17)14-10(12)16/h3-8H2,1-2H3,(H2,13,14,15,16,17)",-2.8756,CCCCC1(CCCC)C(=O)NC(=O)NC1=O,0,G1,B,None,None,Uncharged
B-2499,"InChI=1S/C8H6N2O/c11-7-3-1-2-6-4-5-9-10-8(6)7/h1-5,11H",-2.4089,OC1=CC=CC2=CC=NN=C12,0,G1,B,None,None,Uncharged
B-2500,"InChI=1S/C9H8N2O/c1-6-5-10-11-9-7(6)3-2-4-8(9)12/h2-5,12H,1H3",-2.6783,CC1=CN=NC2=C(O)C=CC=C12,0,G1,B,None,None,Uncharged
B-2501,"InChI=1S/C8H6N2O/c11-7-3-1-2-6-8(7)10-5-4-9-6/h1-5,11H",-1.3468,OC1=CC=CC2=NC=CN=C12,0,G1,B,None,None,Uncharged
B-2502,"InChI=1S/C8H6N2O/c11-7-5-9-4-6-2-1-3-10-8(6)7/h1-5,11H",-1.6576,OC1=CN=CC2=CC=CN=C12,0,G1,B,None,None,Uncharged
B-2503,"InChI=1S/C7H12N4O5/c8-7(16)11-2-5(13)9-1-4(12)10-3-6(14)15/h1-3H2,(H,9,13)(H,10,12)(H,14,15)(H3,8,11,16)",-1.3505,NC(=O)NCC(=O)NCC(=O)NCC([O-])=O,0,G1,B,None,None,Negative
B-2504,"InChI=1S/C6H13NO2/c1-3-5(6(8)9)7-4-2/h5,7H,3-4H2,1-2H3,(H,8,9)",-0.4189,CC[NH2+]C(CC)C([O-])=O,0,G1,B,None,None,Zwitterion
B-2505,"InChI=1S/C8H8O3/c9-7(8(10)11)6-4-2-1-3-5-6/h1-5,7,9H,(H,10,11)/t7-/m0/s1",0.1592,OC(C([O-])=O)C1=CC=CC=C1,0,G1,B,None,None,Negative
B-2506,"InChI=1S/C5H9N3O4/c6-5(12)8-1-3(9)7-2-4(10)11/h1-2H2,(H,7,9)(H,10,11)(H3,6,8,12)",-0.8996,NC(=O)NCC(=O)NCC([O-])=O,0,G1,B,None,None,Negative
B-2507,"InChI=1S/C7H16O/c1-6(2)8-7(3,4)5/h6H,1-5H3",-2.3662,CC(C)OC(C)(C)C,0,G1,B,None,None,Uncharged
B-2508,"InChI=1S/C9H9N3O7/c10-5(9(14)15)1-4-2-6(11(16)17)8(13)7(3-4)12(18)19/h2-3,5,13H,1,10H2,(H,14,15)/t5-/m0/s1",-1.5125,[NH3+]C(CC1=CC(=C([O-])C(=C1)[N+]([O-])=O)[N+]([O-])=O)C([O-])=O,0,G1,B,None,None,Zwitterion
B-2509,"InChI=1S/C10H12N4O3/c1-7(2)12-13-10(15)11-8-3-5-9(6-4-8)14(16)17/h3-6H,1-2H3,(H2,11,13,15)",-3.5952,CC(C)=NNC(=O)NC1=CC=C(C=C1)[N+]([O-])=O,0,G1,B,None,None,PureChargeSeparation
B-2510,"InChI=1S/C10H8O7/c1-17-7-5(9(13)14)2-4(8(11)12)3-6(7)10(15)16/h2-3H,1H3,(H,11,12)(H,13,14)(H,15,16)",-1.5354,COC1=C(C=C(C=C1C([O-])=O)C([O-])=O)C([O-])=O,0,G1,B,None,None,Negative
B-2511,"InChI=1S/C10H10O2/c1-2-9-7-5-3-4-6-8(7)10(11)12-9/h3-6,9H,2H2,1H3",-1.747,CCC1OC(=O)C2=CC=CC=C12,0,G1,B,None,None,Uncharged
B-2512,"InChI=1S/C16H16ClN3O3S/c1-9-5-3-4-6-14(9)20-10(2)19-13-8-12(17)15(24(18,22)23)7-11(13)16(20)21/h3-8,10,19H,1-2H3,(H2,18,22,23)",-3.783,CC1NC2=CC(Cl)=C(C=C2C(=O)N1C1=CC=CC=C1C)S(N)(=O)=O,0.0365,G3,B,None,None,Uncharged
B-2513,"InChI=1S/C5H8N4/c1-3-4(2)8-9-5(6)7-3/h1-2H3,(H2,6,7,9)",-1.0939,CC1=NN=C(N)N=C1C,0,G1,B,None,None,Uncharged
B-2514,"InChI=1S/C17H21NO4S4/c1-18(2)15(13-23-25(19,20)16-9-5-3-6-10-16)14-24-26(21,22)17-11-7-4-8-12-17/h3-12,15H,13-14H2,1-2H3",-5.76,C[NH+](C)C(CSS(=O)(=O)C1=CC=CC=C1)CSS(=O)(=O)C1=CC=CC=C1,0,G1,B,None,None,Positive
B-2515,"InChI=1S/C6H8N2/c1-2-6(5-8)3-4-7/h6H,2-3H2,1H3",-0.6916,CCC(CC#N)C#N,0,G1,B,None,None,Uncharged
B-2516,"InChI=1S/C29H42N6O9/c1-15-19(44-26-24(38)23(37)22(34(4)5)16(2)43-26)10-11-21(42-15)35-13-12-20(33-28(35)41)32-25(39)17-6-8-18(9-7-17)31-27(40)29(3,30)14-36/h6-9,12-13,15-16,19,21-24,26,36-38H,10-11,14,30H2,1-5H3,(H,31,40)(H,32,33,39,41)",-2.4904,CC1OC(CCC1OC1OC(C)C(C(O)C1O)[NH+](C)C)N1C=CC(NC(=O)C2=CC=C(NC(=O)C(C)([NH3+])CO)C=C2)=NC1=O,0,G1,B,None,None,Positive
B-2517,"InChI=1S/C10H10O5/c11-5-6-15-10(14)8-4-2-1-3-7(8)9(12)13/h1-4,11H,5-6H2,(H,12,13)",-1.4825,OCCOC(=O)C1=CC=CC=C1C([O-])=O,0,G1,B,None,None,Negative
B-2520,"InChI=1S/C6H5N3O5/c7-3-1-4(8(11)12)6(10)5(2-3)9(13)14/h1-2,10H,7H2",-2.3853,NC1=CC(=C([O-])C(=C1)[N+]([O-])=O)[N+]([O-])=O,0,G1,B,None,None,Negative
B-2521,"InChI=1S/C17H12ClNO2S/c18-13-8-6-11(7-9-13)16-14(10-15(20)21)22-17(19-16)12-4-2-1-3-5-12/h1-9H,10H2,(H,20,21)",-4.9644,[O-]C(=O)CC1=C(N=C(S1)C1=CC=CC=C1)C1=CC=C(Cl)C=C1,0,G1,B,None,None,Negative
B-2522,"InChI=1S/C6H9NS/c1-2-3-4-5-7-6-8/h2H,1,3-5H2",-2.9004,C=CCCCN=C=S,0,G1,B,None,None,Uncharged
B-2523,"InChI=1S/C12H9NO3/c14-12-8-10(6-7-11(12)13(15)16)9-4-2-1-3-5-9/h1-8,14H",-3.8557,[O-]C1=CC(=CC=C1[N+]([O-])=O)C1=CC=CC=C1,0,G1,B,None,None,Negative
B-2524,"InChI=1S/C9H10O3/c1-6-7(5-10)3-4-8(11)9(6)12-2/h3-5,11H,1-2H3",-1.3755,COC1=C(C)C(C=O)=CC=C1O,0,G1,B,None,None,Uncharged
B-2525,"InChI=1S/C10H13NO2/c1-7(2)13-10(12)8-3-5-9(11)6-4-8/h3-7H,11H2,1-2H3",-2.6099,CC(C)OC(=O)C1=CC=C(N)C=C1,0,G1,B,None,None,Uncharged
B-2527,"InChI=1S/C6H17NSi/c1-8(2,3)6-4-5-7/h4-7H2,1-3H3",-1.9509,C[Si](C)(C)CCC[NH3+],0,G1,B,None,None,Positive
B-2528,"InChI=1S/CH5N5O2/c2-1(4-3)5-6(7)8/h3H2,(H3,2,4,5)",-1.6458,NN=C(N)N[N+]([O-])=O,0,G1,B,None,None,PureChargeSeparation
B-2529,"InChI=1S/C7H7IO/c8-7-3-1-6(5-9)2-4-7/h1-4,9H,5H2",-2.746,OCC1=CC=C(I)C=C1,0,G1,B,None,None,Uncharged
B-2530,"InChI=1S/C7H12N2O2/c1-5-3-2-4-6(8-10)7(5)9-11/h5,10-11H,2-4H2,1H3",-1.5916,CC1CCCC(=NO)C1=NO,0,G1,B,None,None,Uncharged
B-2531,"InChI=1S/C7H12N2O2/c1-5-2-3-6(8-10)7(4-5)9-11/h5,9,11H,2-4H2,1H3",-1.6622,CC1CCC(=NO)C(C1)=NO,0,G1,B,None,None,Uncharged
B-2532,"InChI=1S/C9H16N2O2/c1-6(2)7-3-4-8(10-12)9(5-7)11-13/h6-7,12-13H,3-5H2,1-2H3",-2.3903,CC(C)C1CCC(=NO)C(C1)=NO,0,G1,B,None,None,Uncharged
B-2533,"InChI=1S/C4H8N2O3/c1-2(3(7)8)6-4(5)9/h2H,1H3,(H,7,8)(H3,5,6,9)/p-1/t2-/m0/s1",-0.9656,CC(NC(N)=O)C([O-])=O,0,G1,B,None,None,Negative
B-2534,"InChI=1S/C20H16/c1-13-6-5-9-18-19-12-16-8-4-3-7-15(16)11-17(19)10-14(2)20(13)18/h3-12H,1-2H3",-7.9743,CC1=CC=CC2=C1C(C)=CC1=C2C=C2C=CC=CC2=C1,0,G1,B,None,None,Uncharged
B-2535,"InChI=1S/C10H18N2O2/c13-11-9-7-5-3-1-2-4-6-8-10(9)12-14/h13-14H,1-8H2",-2.5813,ON=C1CCCCCCCCC1=NO,0,G1,B,None,None,Uncharged
B-2536,"InChI=1S/C17H26O10/c1-6-9(19)3-7-8(15(23)24-2)5-25-16(11(6)7)27-17-14(22)13(21)12(20)10(4-18)26-17/h5-7,9-14,16-22H,3-4H2,1-2H3/t6-,7+,9-,10+,11+,12+,13-,14+,16-,17-/m0/s1",-0.5911,COC(=O)C1=COC(OC2OC(CO)C(O)C(O)C2O)C2C(C)C(O)CC12,0,G1,B,None,None,Uncharged
B-2538,"InChI=1S/C4H10OS2/c1-3-6-7(5)4-2/h3-4H2,1-2H3",-0.0993,CCSS(=O)CC,0,G1,B,None,None,Uncharged
B-2539,"InChI=1S/C13H21NO3/c1-13(2,3)14-7-12(17)9-4-5-11(16)10(6-9)8-15/h4-6,12,14-17H,7-8H2,1-3H3",-1.2298,CC(C)(C)[NH2+]CC(O)C1=CC=C(O)C(CO)=C1,0.3899,G3,B,None,None,Positive
B-2540,"InChI=1S/C7H14O2/c1-6-4-3-5-7(8-2)9-6/h6-7H,3-5H2,1-2H3",-0.5921,COC1CCCC(C)O1,0,G1,B,None,None,Uncharged
B-2541,"InChI=1S/C10H16O2/c1-9(2)7-4-5-10(3,12-9)8(11)6-7/h7H,4-6H2,1-3H3",-0.9249,CC1(C)OC2(C)CCC1CC2=O,0,G1,B,None,None,Uncharged
B-2542,"InChI=1S/C10H11N3OS/c1-11-9(14)13(2)10-12-7-5-3-4-6-8(7)15-10/h3-6H,1-2H3,(H,11,14)",-3.5741,CNC(=O)N(C)C1=NC2=CC=CC=C2S1,0,G1,B,None,None,Uncharged
B-2543,"InChI=1S/C8H18O/c1-4-5-6-8(9)7(2)3/h7-9H,4-6H2,1-3H3",-1.8122,CCCCC(O)C(C)C,0,G1,B,None,None,Uncharged
B-2544,"InChI=1S/C8H18O/c1-4-7(3)6-8(9)5-2/h7-9H,4-6H2,1-3H3",-1.8602,CCC(C)CC(O)CC,0,G1,B,None,None,Uncharged
B-2545,"InChI=1S/C8H18O/c1-4-8(9)6-5-7(2)3/h7-9H,4-6H2,1-3H3",-1.9272,CCC(O)CCC(C)C,0,G1,B,None,None,Uncharged
B-2546,"InChI=1S/C6H8O4Se/c7-5(8)3-1-2-4(11-3)6(9)10/h3-4H,1-2H2,(H,7,8)(H,9,10)",-0.545,[O-]C(=O)C1CCC([Se]1)C([O-])=O,0,G1,B,None,None,Negative
B-2547,"InChI=1S/C13H16NO4PS/c1-3-15-19(20,16-4-2)18-13-10-12(17-14-13)11-8-6-5-7-9-11/h5-10H,3-4H2,1-2H3",-5.2172,CCOP(=S)(OCC)OC1=NOC(=C1)C1=CC=CC=C1,0,G1,B,None,None,Uncharged
B-2548,"InChI=1S/C11H13NO4/c1-8(2)7-11(13)16-10-5-3-9(4-6-10)12(14)15/h3-6,8H,7H2,1-2H3",-4.3945,CC(C)CC(=O)OC1=CC=C(C=C1)[N+]([O-])=O,0,G1,B,None,None,PureChargeSeparation
B-2549,"InChI=1S/C7H7BrO/c8-7-4-2-1-3-6(7)5-9/h1-4,9H,5H2",-2.158,OCC1=CC=CC=C1Br,0,G1,B,None,None,Uncharged