ID,InChI,Solubility,SMILEScurated,SD,Group,Dataset,Composition,Error,Charge
A-2738,"InChI=1S/C23H29N5O3/c1-5-7-8-16(6-2)14-25-21(29)17-9-11-18(12-10-17)26-27-20-15(3)19(13-24)22(30)28(4)23(20)31/h9-12,16,26H,5-8,14H2,1-4H3,(H,25,29)/b27-20-",-7.024810856,CCCCC(CC)CNC(=O)C1=CC=C(NN=C2C(C)=C(C#N)C(=O)N(C)C2=O)C=C1,0,G1,A,mono-constituent,Below LoD Below LoQ,Uncharged
A-2739,"InChI=1S/C14H10Cl2N4O2/c1-7-9(6-17)13(21)20(2)14(22)12(7)19-18-8-3-4-10(15)11(16)5-8/h3-5,18H,1-2H3/b19-12+",-6.925783782,CN1C(=O)C(=NNC2=CC=C(Cl)C(Cl)=C2)C(C)=C(C#N)C1=O,0,G1,A,mono-constituent,Below LoD Below LoQ,Uncharged
A-2740,"InChI=1S/C48H69N3O6/c1-43(2,3)31-19-28(20-32(37(31)52)44(4,5)6)25-49-40(55)50(26-29-21-33(45(7,8)9)38(53)34(22-29)46(10,11)12)42(57)51(41(49)56)27-30-23-35(47(13,14)15)39(54)36(24-30)48(16,17)18/h19-24,52-54H,25-27H2,1-18H3",-7.292308693,CC(C)(C)C1=CC(CN2C(=O)N(CC3=CC(=C(O)C(=C3)C(C)(C)C)C(C)(C)C)C(=O)N(CC3=CC(=C(O)C(=C3)C(C)(C)C)C(C)(C)C)C2=O)=CC(=C1O)C(C)(C)C,0.698970004,G2,A,mono-constituent,None,Uncharged
A-2741,"InChI=1S/C29H24O7/c30-21(17-35-22-11-13-24(26(31)15-22)28(33)19-7-3-1-4-8-19)18-36-23-12-14-25(27(32)16-23)29(34)20-9-5-2-6-10-20/h1-16,21,30-32H,17-18H2",-7.138754703,OC(COC1=CC=C(C(=O)C2=CC=CC=C2)C(O)=C1)COC1=CC=C(C(=O)C2=CC=CC=C2)C([O-])=C1,0,G1,A,mono-constituent,None,Negative
A-2742,"InChI=1S/2C26H55N/c1-4-6-8-10-12-14-15-16-18-20-22-24-27-25-26(3)23-21-19-17-13-11-9-7-5-2;1-3-5-7-9-11-13-15-17-19-21-23-25-27-26-24-22-20-18-16-14-12-10-8-6-4-2/h26-27H,4-25H2,1-3H3;27H,3-26H2,1-2H3",-7.405668446,CCCCCCCCCCCCC[NH2+]CCCCCCCCCCCCC,1.761439373,G2,A,None,Multi-constituent Substances,Positive
A-2743,"InChI=1S/C21H25N/c1-21(2,3)15-8-5-9-16-22(4)17-19-13-10-12-18-11-6-7-14-20(18)19/h5-7,9-14H,16-17H2,1-4H3/b9-5+",-4.464546178,C[NH+](CC=CC#CC(C)(C)C)CC1=CC=CC2=CC=CC=C12,0,G1,A,mono-constituent,None,Positive
A-2744,"InChI=1S/C24H50S2/c1-7-9-11-13-15-17-19-21-23(3,4)25-26-24(5,6)22-20-18-16-14-12-10-8-2/h7-22H2,1-6H3",-7.127966051,CCCCCCCCCC(C)(C)SSC(C)(C)CCCCCCCCC,1.031073953,G2,A,UVCB,None,Uncharged
A-2745,"InChI=1S/C17H34O3/c1-5-9-11-15(7-3)13-19-17(18)20-14-16(8-4)12-10-6-2/h15-16H,5-14H2,1-4H3",-6.979936669,CCCCC(CC)COC(=O)OCC(CC)CCCC,0,G1,A,mono-constituent,None,Uncharged
A-2747,"InChI=1S/C28H28O7P2/c29-36(31-21-25-13-5-1-6-14-25,32-22-26-15-7-2-8-16-26)35-37(30,33-23-27-17-9-3-10-18-27)34-24-28-19-11-4-12-20-28/h1-20H,21-24H2",-7.254042677,O=P(OCC1=CC=CC=C1)(OCC1=CC=CC=C1)OP(=O)(OCC1=CC=CC=C1)OCC1=CC=CC=C1,0,G1,A,mono-constituent,None,Uncharged
A-2748,"InChI=1S/C27H26N2O2/c1-27(2,19-3-11-23(12-4-19)30-25-15-7-21(28)8-16-25)20-5-13-24(14-6-20)31-26-17-9-22(29)10-18-26/h3-18H,28-29H2,1-2H3",-7.19172722,CC(C)(C1=CC=C(OC2=CC=C(N)C=C2)C=C1)C1=CC=C(OC2=CC=C(N)C=C2)C=C1,0,G1,A,mono-constituent,None,Uncharged
A-2750,"InChI=1S/C18H36O2.C7H6O2.Al.H2O/c1-2-3-4-5-6-7-8-9-10-11-12-13-14-15-16-17-18(19)20;8-7(9)6-4-2-1-3-5-6;;/h2-17H2,1H3,(H,19,20);1-5H,(H,8,9);;1H2/q;;+3;/p-3",-7.253899898,CCCCCCCCCCCCCCCCCC(=O)O[Al](O)OC(=O)C1=CC=CC=C1,0,G1,A,mono-constituent,None,Uncharged
A-2751,"InChI=1S/C23H18N4O2/c1-3-26(4-2)15-10-9-14-11-16-21(29-20(14)12-15)17(13-24)23(28)27-19-8-6-5-7-18(19)25-22(16)27/h5-12H,3-4H2,1-2H3",-7.202332762,CCN(CC)C1=CC=C2C=C3C4=NC5=CC=CC=C5N4C(=O)C(C#N)=C3OC2=C1,0,G1,A,mono-constituent,None,Uncharged
A-2752,"InChI=1S/C20H22N6O2S/c1-5-26(6-2)17-7-8-18(19(11-17)25-29(4,27)28)23-24-20-15(12-21)9-14(3)10-16(20)13-22/h7-11,25H,5-6H2,1-4H3",-7.233105094,CCN(CC)C1=CC=C(N=NC2=C(C=C(C)C=C2C#N)C#N)C([N-]S(C)(=O)=O)=C1,0,G1,A,mono-constituent,None,Negative
A-2753,"InChI=1S/C19H38O2.C19H36O2.C19H34O2.C19H32O2.C17H34O2/c4*1-3-4-5-6-7-8-9-10-11-12-13-14-15-16-17-18-19(20)21-2;1-3-4-5-6-7-8-9-10-11-12-13-14-15-16-17(18)19-2/h3-18H2,1-2H3;10-11H,3-9,12-18H2,1-2H3;7-8,10-11H,3-6,9,12-18H2,1-2H3;4-5,7-8,10-11H,3,6,9,12-18H2,1-2H3;3-16H2,1-2H3/b;11-10-;8-7-,11-10-;5-4+,8-7+,11-10+;",-7.800359899,CCCCCCCCCCCCCCCCCC(=O)OC,0,G1,A,None,Multi-constituent Substances,Uncharged
A-2754,"InChI=1S/C21H21N5O6/c1-15(27)31-11-9-25(10-12-32-16(2)28)19-5-3-18(4-6-19)23-24-21-8-7-20(26(29)30)13-17(21)14-22/h3-8,13H,9-12H2,1-2H3",-7.300465045,CC(=O)OCCN(CCOC(C)=O)C1=CC=C(C=C1)N=NC1=CC=C(C=C1C#N)[N+]([O-])=O,0,G1,A,mono-constituent,None,PureChargeSeparation
A-2755,"InChI=1S/C8BrF17/c9-7(22,23)5(18,19)3(14,15)1(10,11)2(12,13)4(16,17)6(20,21)8(24,25)26",-7.397033995,FC(F)(F)C(F)(F)C(F)(F)C(F)(F)C(F)(F)C(F)(F)C(F)(F)C(F)(F)Br,0,G1,A,mono-constituent,None,Uncharged
A-2756,"InChI=1S/C17H17N5O2/c1-2-21(13-3-12-18)16-8-4-14(5-9-16)19-20-15-6-10-17(11-7-15)22(23)24/h4-11H,2-3,13H2,1H3",-7.208650928,CCN(CCC#N)C1=CC=C(C=C1)N=NC1=CC=C(C=C1)[N+]([O-])=O,0,G1,A,mono-constituent,Non Valid pH,PureChargeSeparation
A-2757,"InChI=1S/C40H26N2O4/c1-19-13-20(2)16-23(15-19)41-37(43)29-9-5-25-27-7-11-31-36-32(40(46)42(39(31)45)24-17-21(3)14-22(4)18-24)12-8-28(34(27)36)26-6-10-30(38(41)44)35(29)33(25)26/h5-18H,1-4H3",-7.476148795,CC1=CC(=CC(C)=C1)N1C(=O)C2=CC=C3C4=C5C(=CC=C6C(=O)N(C7=CC(C)=CC(C)=C7)C(=O)C(C=C4)=C56)C4=C3C2=C(C=C4)C1=O,0.57745098,G2,A,mono-constituent,None,Uncharged
A-2759,InChI=1S/6CN.2Fe.H3N/c6*1-2;;;/h;;;;;;;;1H3/q6*-1;+2;+3;/p+1,-7.155088449,[NH4+].[Fe++].[Fe+3].C#N.C#N.C#N.C#N.C#N.C#N,0,G1,A,None,None,Positive
A-2760,"InChI=1S/C19H19N5O4S/c1-3-23(11-10-18(25)28-2)14-6-4-13(5-7-14)20-21-19-16-12-15(24(26)27)8-9-17(16)22-29-19/h4-9,12H,3,10-11H2,1-2H3",-7.315402454,CCN(CCC(=O)OC)C1=CC=C(C=C1)N=NC1=C2C=C(C=CC2=NS1)[N+]([O-])=O,0,G1,A,mono-constituent,None,PureChargeSeparation
A-2761,"InChI=1S/C28H56O2/c1-3-5-7-9-11-13-15-17-19-21-23-25-27-30-28(29)26-24-22-20-18-16-14-12-10-8-6-4-2/h3-27H2,1-2H3",-7.327107482,CCCCCCCCCCCCCCOC(=O)CCCCCCCCCCCCC,0,G1,A,mono-constituent,None,Uncharged
A-2762,"InChI=1S/C23H30/c1-3-5-19-8-12-21(13-9-19)23-16-14-22(15-17-23)20-10-6-18(4-2)7-11-20/h6-7,10-11,14-17,19,21H,3-5,8-9,12-13H2,1-2H3",-7.185390564,CCCC1CCC(CC1)C1=CC=C(C=C1)C1=CC=C(CC)C=C1,0,G1,A,mono-constituent,None,Uncharged
A-2763,"InChI=1S/C24H27O4P/c1-16-7-17(2)11-22(10-16)26-29(25,27-23-12-18(3)8-19(4)13-23)28-24-14-20(5)9-21(6)15-24/h7-15H,1-6H3",-7.312230264,CC1=CC(OP(=O)(OC2=CC(C)=CC(C)=C2)OC2=CC(C)=CC(C)=C2)=CC(C)=C1,0,G1,A,None,None,Uncharged
A-2764,"InChI=1S/C40H56/c1-31(19-13-21-33(3)25-27-37-35(5)23-15-29-39(37,7)8)17-11-12-18-32(2)20-14-22-34(4)26-28-38-36(6)24-16-30-40(38,9)10/h11-14,17-22,25-28H,15-16,23-24,29-30H2,1-10H3/b12-11+,19-13+,20-14+,27-25+,28-26+,31-17+,32-18+,33-21+,34-22+",-7.553792438,CC(C=CC=C(C)C=CC1=C(C)CCCC1(C)C)=CC=CC=C(C)C=CC=C(C)C=CC1=C(C)CCCC1(C)C,0,G1,A,mono-constituent,None,Uncharged
A-2765,InChI=1S/Hf,-7.172432644,[Hf],0,G1,A,mono-constituent,None,Uncharged
A-2766,InChI=1S/Hf.2O/q+4;2*-2,-7.244046096,O.O.[Hf+4],0,G1,A,None,None,Uncharged
A-2767,"InChI=1S/C40H79NO/c1-3-5-7-9-11-13-15-17-19-21-22-23-24-26-28-30-32-34-36-38-40(42)41-39-37-35-33-31-29-27-25-20-18-16-14-12-10-8-6-4-2/h17,19H,3-16,18,20-39H2,1-2H3,(H,41,42)/b19-17-",-7.770909423,CCCCCCCCCCCCCCCCCCNC(=O)CCCCCCCCCCCC=CCCCCCCCC,0.349485002,G3,A,mono-constituent,None,Uncharged
A-2768,"InChI=1S/C32H32N2O/c33-30(21-26-13-5-1-6-14-26)23-32(35)31(22-27-15-7-2-8-16-27)34(24-28-17-9-3-10-18-28)25-29-19-11-4-12-20-29/h1-20,23,31H,21-22,24-25,33H2/t31-/m1/s1",-7.663343734,NC(CC1=CC=CC=C1)=CC(=O)C(CC1=CC=CC=C1)[NH+](CC1=CC=CC=C1)CC1=CC=CC=C1,0,G1,A,None,None,Positive
A-2769,"InChI=1S/C34H67NO/c1-3-5-7-9-11-13-15-17-18-19-21-23-25-27-29-31-33-35-34(36)32-30-28-26-24-22-20-16-14-12-10-8-6-4-2/h17-18H,3-16,19-33H2,1-2H3,(H,35,36)/b18-17-",-7.704078415,CCCCCCCCCCCCCCCC(=O)NCCCCCCCCC=CCCCCCCCC,0,G1,A,mono-constituent,None,Uncharged
A-2771,"InChI=1S/C16H12N4O9S2.CH5N3.ClH/c21-15-13(18-17-9-1-5-11(6-2-9)30(24,25)26)14(16(22)23)19-20(15)10-3-7-12(8-4-10)31(27,28)29;2-1(3)4;/h1-8,13H,(H,22,23)(H,24,25,26)(H,27,28,29);(H5,2,3,4);1H",-7.751246762,[O-]C(=O)C1=C(N=NC2=CC=C(C=C2)S([O-])(=O)=O)C(=O)N([N-]1)C1=CC=C(C=C1)S([O-])(=O)=O,0,G1,A,None,Cosolvent Buffer,Negative
A-2772,"InChI=1S/C35H63NO2/c1-8-9-10-11-12-13-14-15-16-17-18-19-20-21-22-23-26-36-32(37)25-24-29-27-30(34(2,3)4)33(38)31(28-29)35(5,6)7/h27-28,38H,8-26H2,1-7H3,(H,36,37)",-7.724189002,CCCCCCCCCCCCCCCCCCNC(=O)CCC1=CC(=C(O)C(=C1)C(C)(C)C)C(C)(C)C,0,G1,A,None,None,Uncharged
A-2773,"InChI=1S/C40H64N2O4/c1-37(2,3)29-23-27(24-30(35(29)45)38(4,5)6)17-19-33(43)41-21-15-13-14-16-22-42-34(44)20-18-28-25-31(39(7,8)9)36(46)32(26-28)40(10,11)12/h23-26,45-46H,13-22H2,1-12H3,(H,41,43)(H,42,44)",-7.804113524,CC(C)(C)C1=CC(CCC(=O)NCCCCCCNC(=O)CCC2=CC(=C(O)C(=C2)C(C)(C)C)C(C)(C)C)=CC(=C1O)C(C)(C)C,1,G2,A,mono-constituent,None,Uncharged
A-2775,"InChI=1S/C13H9Cl2NO/c14-8-5-6-12(16)10(7-8)13(17)9-3-1-2-4-11(9)15/h1-7H,16H2",-7.425088938,NC1=CC=C(Cl)C=C1C(=O)C1=CC=CC=C1Cl,0,G1,A,mono-constituent,None,Uncharged
A-2776,"InChI=1S/C36H28O8P2/c37-45(39-31-13-5-1-6-14-31,40-32-15-7-2-8-16-32)43-35-25-21-29(22-26-35)30-23-27-36(28-24-30)44-46(38,41-33-17-9-3-10-18-33)42-34-19-11-4-12-20-34/h1-28H",-7.813287357,O=P(OC1=CC=CC=C1)(OC1=CC=CC=C1)OC1=CC=C(C=C1)C1=CC=C(OP(=O)(OC2=CC=CC=C2)OC2=CC=CC=C2)C=C1,0,G1,A,None,None,Uncharged
A-2777,InChI=1S/C48H26N6O4/c55-45-37-23-19-33-35-21-25-39-44-40(48(58)54(47(39)57)32-17-13-30(14-18-32)52-50-28-9-5-2-6-10-28)26-22-36(42(35)44)34-20-24-38(43(37)41(33)34)46(56)53(45)31-15-11-29(12-16-31)51-49-27-7-3-1-4-8-27/h1-26H,-7.875509224,O=C1N(C2=CC=C(C=C2)N=NC2=CC=CC=C2)C(=O)C2=C3C1=CC=C1C4=C5C(=CC=C6C(=O)N(C7=CC=C(C=C7)N=NC7=CC=CC=C7)C(=O)C(C=C4)=C56)C(C=C2)=C31,0,G1,A,mono-constituent,Below LoD Below LoQ,Uncharged
A-2778,"InChI=1S/C40H34N6O8/c1-5-51-29-17-27-31(19-25(29)45-39(49)23-13-9-7-10-14-23)53-37-34(42-22(4)48)36-38(33(35(37)43-27)41-21(3)47)54-32-20-26(30(52-6-2)18-28(32)44-36)46-40(50)24-15-11-8-12-16-24/h7-20H,5-6H2,1-4H3,(H,41,47)(H,42,48)(H,45,49)(H,46,50)",-7.86138265,CCOC1=CC2=C(OC3=C(NC(C)=O)C4=NC5=CC(OCC)=C(NC(=O)C6=CC=CC=C6)C=C5OC4=C(NC(C)=O)C3=N2)C=C1NC(=O)C1=CC=CC=C1,0,G1,A,mono-constituent,Below LoD Below LoQ,Uncharged
A-2779,"InChI=1S/C36H73NO/c1-3-5-7-9-11-13-15-17-19-21-23-25-27-29-31-33-35-37-36(38)34-32-30-28-26-24-22-20-18-16-14-12-10-8-6-4-2/h3-35H2,1-2H3,(H,37,38)",-7.729153446,CCCCCCCCCCCCCCCCCCNC(=O)CCCCCCCCCCCCCCCCC,0.352075258,G3,A,UVCB,None,Uncharged
A-2781,InChI=1S/Al.BO3/c;2-1(3)4/q+3;-3,-6.93344173,OB(O)O,0,G1,A,mono-constituent,Non Valid pH,Uncharged
A-2783,InChI=1S/BN/c1-2,-6.394784279,B#N,0,G1,A,mono-constituent,None,Uncharged
A-2785,"InChI=1S/C54H78O3/c1-31-37(22-34-25-40(49(4,5)6)46(55)41(26-34)50(7,8)9)32(2)39(24-36-29-44(53(16,17)18)48(57)45(30-36)54(19,20)21)33(3)38(31)23-35-27-42(51(10,11)12)47(56)43(28-35)52(13,14)15/h25-30,55-57H,22-24H2,1-21H3",-7.981473646,CC1=C(CC2=CC(=C(O)C(=C2)C(C)(C)C)C(C)(C)C)C(C)=C(CC2=CC(=C(O)C(=C2)C(C)(C)C)C(C)(C)C)C(C)=C1CC1=CC(=C(O)C(=C1)C(C)(C)C)C(C)(C)C,1.046025739,G2,A,mono-constituent,Non Valid pH,Uncharged
A-2788,"InChI=1S/C30H31N/c1-29(2,23-11-7-5-8-12-23)25-15-19-27(20-16-25)31-28-21-17-26(18-22-28)30(3,4)24-13-9-6-10-14-24/h5-22,31H,1-4H3",-7.782007082,CC(C)(C1=CC=CC=C1)C1=CC=C(NC2=CC=C(C=C2)C(C)(C)C2=CC=CC=C2)C=C1,0,G1,A,mono-constituent,Below LoD Below LoQ,Uncharged
A-2789,"InChI=1S/C20H19N3O5S/c1-3-23(4-2)13-6-5-12-9-15(20(24)28-18(12)10-13)19-22-16-11-14(29(21,25)26)7-8-17(16)27-19/h5-11H,3-4H2,1-2H3,(H2,21,25,26)",-7.831098413,CCN(CC)C1=CC=C2C=C(C3=NC4=CC(=CC=C4O3)S(N)(=O)=O)C(=O)OC2=C1,0,G1,A,mono-constituent,Non Valid pH,Uncharged
A-2790,"InChI=1S/C28H14N2O4/c31-25-13-5-1-3-7-15(13)27(33)21-17(25)9-11-19-23(21)29-20-12-10-18-22(24(20)30-19)28(34)16-8-4-2-6-14(16)26(18)32/h1-12,29-30H",-7.946874563,O=C1C2=CC=CC=C2C(=O)C2=C3NC4=CC=C5C(=O)C6=CC=CC=C6C(=O)C5=C4NC3=CC=C12,0,G1,A,mono-constituent,Below LoD Below LoQ,Uncharged
A-2792,"InChI=1S/C34H56N4O4/c1-5-9-15-27(7-3)25-41-23-13-21-35-33(39)37-31-19-11-18-30-29(31)17-12-20-32(30)38-34(40)36-22-14-24-42-26-28(8-4)16-10-6-2/h11-12,17-20,27-28H,5-10,13-16,21-26H2,1-4H3,(H2,35,37,39)(H2,36,38,40)",-8.06807152,CCCCC(CC)COCCCNC(=O)NC1=CC=CC2=C(NC(=O)NCCCOCC(CC)CCCC)C=CC=C12,0,G1,A,mono-constituent,Below LoD Below LoQ,Uncharged
A-2794,"InChI=1S/C43H64O10/c1-27-17-29(19-31(35(27)46)39(3,4)5)13-15-33(44)48-21-41(9,10)37-50-23-43(24-51-37)25-52-38(53-26-43)42(11,12)22-49-34(45)16-14-30-18-28(2)36(47)32(20-30)40(6,7)8/h17-20,37-38,46-47H,13-16,21-26H2,1-12H3",-8.267743564,CC1=CC(CCC(=O)OCC(C)(C)C2OCC3(COC(OC3)C(C)(C)COC(=O)CCC3=CC(C)=C(O)C(=C3)C(C)(C)C)CO2)=CC(=C1O)C(C)(C)C,0,G1,A,None,None,Uncharged
A-2795,"InChI=1S/2C10H6F2N.2C5H5.Ti/c2*11-8-3-4-10(9(12)7-8)13-5-1-2-6-13;2*1-2-4-5-3-1;/h2*1,3-7H;2*1-5H;/q4*-1;+4",-8.125789392,[Ti+4].C1C=CC=C1.C1C=CC=C1.FC1=CC=C(N2C=CC=C2)C(F)=C1.FC1=CC=C(N2C=CC=C2)C(F)=C1,0,G1,A,None,Multi-constituent Substances,Uncharged
A-2796,"InChI=1S/C21H17N3O2S/c1-3-24(4-2)13-9-10-14-15(12-22)19(21(25)26-17(14)11-13)20-23-16-7-5-6-8-18(16)27-20/h5-11H,3-4H2,1-2H3",-8.097434324,CCN(CC)C1=CC=C2C(OC(=O)C(C3=NC4=CC=CC=C4S3)=C2C#N)=C1,0,G1,A,mono-constituent,None,Uncharged
A-2797,InChI=1S/C24H16N2/c25-17-23-14-11-21(12-15-23)9-6-19-4-7-20(8-5-19)10-13-22-2-1-3-24(16-22)18-26/h1-16H,-8.123728846,N#CC1=CC=C(C=CC2=CC=C(C=CC3=CC=CC(=C3)C#N)C=C2)C=C1,0,G1,A,None,None,Uncharged
A-2798,"InChI=1S/C34H32N6O6/c1-21(41)31(33(43)35-25-11-7-5-8-12-25)39-37-27-17-15-23(19-29(27)45-3)24-16-18-28(30(20-24)46-4)38-40-32(22(2)42)34(44)36-26-13-9-6-10-14-26/h5-20,31-32H,1-4H3,(H,35,43)(H,36,44)",-8.616766696,COC1=CC(=CC=C1[N-]N=C(C(C)=O)C(=O)NC1=CC=CC=C1)C1=CC=C([N-]N=C(C(C)=O)C(=O)NC2=CC=CC=C2)C(OC)=C1,0,G1,A,mono-constituent,None,Negative
A-2801,"InChI=1S/C24H51O4P/c1-7-13-16-22(10-4)19-26-29(25,27-20-23(11-5)17-14-8-2)28-21-24(12-6)18-15-9-3/h22-24H,7-21H2,1-6H3",-8.85998044,CCCCC(CC)COP(=O)(OCC(CC)CCCC)OCC(CC)CCCC,1.542743112,G4,A,mono-constituent,None,Uncharged
A-2802,"InChI=1S/C27H27N3O2/c1-2-3-4-11-18-32-22-16-17-23(24(31)19-22)27-29-25(20-12-7-5-8-13-20)28-26(30-27)21-14-9-6-10-15-21/h5-10,12-17,19,31H,2-4,11,18H2,1H3",-9.15181097,CCCCCCOC1=CC=C(C([O-])=C1)C1=NC(=NC(=N1)C1=CC=CC=C1)C1=CC=CC=C1,0,G1,A,None,None,Negative
A-2803,"InChI=1S/C72H139N/c1-3-5-7-9-11-13-15-17-19-21-23-25-27-29-31-33-35-37-39-41-43-45-47-49-51-53-55-57-59-61-63-65-67-69-71-73-72-70-68-66-64-62-60-58-56-54-52-50-48-46-44-42-40-38-36-34-32-30-28-26-24-22-20-18-16-14-12-10-8-6-4-2/h23,25,29,31,42,44,48,50,73H,3-22,24,26-28,30,32-41,43,45-47,49,51-72H2,1-2H3/b25-23+,31-29+,44-42+,50-48+",-9.707106255,CCCCCCCCCCCCCCCCCCCCC=CCC=CCCCCCCCCCCC[NH2+]CCCCCCCCCCCCCCCCCCCCC=CCC=CCCCCCCCCCCC,0,G1,A,UVCB,None,Positive
A-2804,"InChI=1S/C28H46O4/c1-5-9-11-17-23(15-7-3)21-31-27(29)25-19-13-14-20-26(25)28(30)32-22-24(16-8-4)18-12-10-6-2/h13-14,19-20,23-24H,5-12,15-18,21-22H2,1-4H3",-9.649988729,CCCCCC(CCC)COC(=O)C1=CC=CC=C1C(=O)OCC(CCC)CCCCC,0,G1,A,mono-constituent,None,Uncharged
A-2805,"InChI=1S/C11H11Cl2NO2/c1-7-6-16-9-5-3-2-4-8(9)14(7)11(15)10(12)13/h2-5,7,10H,6H2,1H3",-3.835390149,CC1COC2=CC=CC=C2N1C(=O)C(Cl)Cl,0.139354926,G3,A,mono-constituent,None,Uncharged
A-2806,"InChI=1S/C12H14FNO.ClH/c13-11-3-1-9(2-4-11)12(15)10-5-7-14-8-6-10;/h1-4,10,14H,5-8H2;1H",0.589019569,FC1=CC=C(C=C1)C(=O)C1CC[NH2+]CC1,0,G1,A,None,None,Positive
A-2807,"InChI=1S/C3H6O3/c4-1-3(6)2-5/h4-5H,1-2H2",1.013864214,OCC(=O)CO,0,G1,A,mono-constituent,None,Uncharged
A-2809,"InChI=1S/C28H17N9O16S2.2Na/c38-23-10-17(55(51,52)53)6-12-5-16(54(48,49)50)9-18(24(12)23)30-32-20-11-21(33-31-19-7-15(36(44)45)8-22(26(19)39)37(46)47)28(41)25(27(20)40)34-29-13-1-3-14(4-2-13)35(42)43;;/h1-11,38-41H,(H,48,49,50)(H,51,52,53);;/q;2*+1/p-2",-0.967567025,OC1=C2C(NN=C3C=C(N=NC4=CC(=CC(=C4[O-])[N+]([O-])=O)[N+]([O-])=O)C(=O)C(N=NC4=CC=C(C=C4)[N+]([O-])=O)=C3[O-])=CC(=CC2=CC(=C1)S([O-])(=O)=O)S([O-])(=O)=O,0,G1,A,UVCB,None,Negative
A-2811,"InChI=1S/C33H24N6O9S2.2Na/c40-31-25-13-11-23(15-19(25)17-27(49(43,44)45)29(31)38-36-21-7-3-1-4-8-21)34-33(42)35-24-12-14-26-20(16-24)18-28(50(46,47)48)30(32(26)41)39-37-22-9-5-2-6-10-22;;/h1-18,40-41H,(H2,34,35,42)(H,43,44,45)(H,46,47,48);;/q;2*+1/p-2",-1.887246692,[O-]S(=O)(=O)C1=CC2=CC(NC(=O)NC3=CC=C4C(=C3)C=C(C(=NNC3=CC=CC=C3)C4=O)S([O-])(=O)=O)=CC=C2C(=O)C1=NNC1=CC=CC=C1,0,G1,A,mono-constituent,None,Negative
A-2812,"InChI=1S/C6H14NO.ClH/c1-7(2,3)4-6-5-8-6;/h6H,4-5H2,1-3H3;1H/q+1;/p-1",0.749634411,C[N+](C)(C)CC1CO1,0,G1,A,mono-constituent,None,Positive
A-2814,"InChI=1S/C9H12O3S/c1-7(2)8-3-5-9(6-4-8)13(10,11)12/h3-7H,1-2H3,(H,10,11,12)",0.612751114,CC(C)C1=CC=C(C=C1)S([O-])(=O)=O,0,G1,A,mono-constituent,None,Negative
A-2816,"InChI=1S/C26H24N4O9S3.2Na/c1-13-5-10-18-23(24(13)42(36,37)38)40-26(28-18)16-6-8-17(9-7-16)29-30-22(15(3)31)25(32)27-19-11-14(2)21(41(33,34)35)12-20(19)39-4;;/h5-12,22H,1-4H3,(H,27,32)(H,33,34,35)(H,36,37,38);;/q;2*+1/p-2",-0.916346136,COC1=CC(=C(C)C=C1NC(=O)C(=N[N-]C1=CC=C(C=C1)C1=NC2=CC=C(C)C(=C2S1)S([O-])(=O)=O)C(C)=O)S([O-])(=O)=O,0,G1,A,mono-constituent,None,Negative
A-2818,"InChI=1S/C32H22N4O8S2.2Na/c37-27-15-9-19-5-1-3-7-23(19)31(27)35-33-21-11-13-25(29(17-21)45(39,40)41)26-14-12-22(18-30(26)46(42,43)44)34-36-32-24-8-4-2-6-20(24)10-16-28(32)38;;/h1-18,33-34H,(H,39,40,41)(H,42,43,44);;/q;2*+1/p-2/b35-31-,36-32-;;",-1.897313906,[O-]S(=O)(=O)C1=CC(NN=C2C(=O)C=CC3=CC=CC=C23)=CC=C1C1=CC=C(NN=C2C(=O)C=CC3=CC=CC=C23)C=C1S([O-])(=O)=O,0,G1,A,None,None,Negative
A-2819,"InChI=1S/C7H6N2/c8-5-6-1-3-7(9)4-2-6/h1-4H,9H2",-1.142974365,NC1=CC=C(C=C1)C#N,0.010466953,G3,A,mono-constituent,None,Uncharged
A-2821,"InChI=1S/C2H4O2S.K/c3-2(4)1-5;/h5H,1H2,(H,3,4);/q;+1/p-1",0.780671021,[O-]C(=O)CS,0,G1,A,mono-constituent,None,Negative
A-2822,"InChI=1S/C6H12O5S.Na/c1-2-3-11-4-6(7)5-12(8,9)10;/h2,6-7H,1,3-5H2,(H,8,9,10);/q;+1/p-1",0.55383995,OC(COCC=C)CS([O-])(=O)=O,0,G1,A,mono-constituent,None,Negative
A-2823,InChI=1S/C3H4O3/c4-3-5-1-2-6-3/h1-2H2,0.946191052,O=C1OCCO1,0.054504474,G3,A,mono-constituent,Non Valid pH,Uncharged
A-2824,"InChI=1S/C5H6O4/c1-3(5(8)9)2-4(6)7/h1-2H2,(H,6,7)(H,8,9)",-0.225028298,[O-]C(=O)CC(=C)C([O-])=O,0.017514149,G3,A,mono-constituent,Non Valid pH,Negative
A-2826,"InChI=1S/C6H14N4O2.ClH/c7-4(5(11)12)2-1-3-10-6(8)9;/h4H,1-3,7H2,(H,11,12)(H4,8,9,10);1H/t4-;/m0./s1",0.539730472,NC(=[NH2+])NCCCC([NH3+])C([O-])=O,0,G1,A,None,None,Zwitterion
A-2828,"InChI=1S/C26H23N3O5S.Na/c1-16-14-19(27-17(2)25(30)18-8-4-3-5-9-18)12-13-22(16)28-29-23-15-24(35(32,33)34)20-10-6-7-11-21(20)26(23)31;/h3-15,17,27-28H,1-2H3,(H,32,33,34);/q;+1/p-1/b29-23+;",-1.812900622,CC(NC1=CC=C(NN=C2C=C(C3=CC=CC=C3C2=O)S([O-])(=O)=O)C(C)=C1)C(=O)C1=CC=CC=C1,0,G1,A,None,None,Negative
A-2831,"InChI=1S/C3H5ClO/c4-1-3-2-5-3/h3H,1-2H2",-0.147373679,ClCC1CO1,0,G1,A,mono-constituent,None,Uncharged
A-2833,"InChI=1S/C6H9NO6.3Na/c8-4(9)1-7(2-5(10)11)3-6(12)13;;;/h1-3H2,(H,8,9)(H,10,11)(H,12,13);;;/q;3*+1/p-3",0.396103236,[O-]C(=O)CN(CC([O-])=O)CC([O-])=O,0.081151487,G3,A,mono-constituent,None,Negative
A-2834,"InChI=1S/C12H11N5O6S.Na/c13-7-4-8(14)12(24(21,22)23)5-9(7)15-16-10-3-6(17(19)20)1-2-11(10)18;/h1-5,18H,13-14H2,(H,21,22,23);/q;+1/p-1",-0.763942094,NC1=CC(N)=C(C=C1N=NC1=CC(=CC=C1O)[N+]([O-])=O)S([O-])(=O)=O,0,G1,A,mono-constituent,None,Negative
A-2836,"InChI=1S/C13H11N/c14-13(11-7-3-1-4-8-11)12-9-5-2-6-10-12/h1-10,14H",-2.781128006,[NH2+]=C(C1=CC=CC=C1)C1=CC=CC=C1,0,G1,A,mono-constituent,Unstable,Positive
A-2838,"InChI=1S/C2H4O2S.Na/c3-2(4)1-5;/h5H,1H2,(H,3,4);/q;+1/p-1",0.727399149,[O-]C(=O)CS,0,G1,A,mono-constituent,None,Negative
A-2839,"InChI=1S/C9H18O2.K/c1-7(5-8(10)11)6-9(2,3)4;/h7H,5-6H2,1-4H3,(H,10,11);/q;+1/p-1",0.485162372,CC(CC([O-])=O)CC(C)(C)C,0,G1,A,mono-constituent,None,Negative
A-2840,"InChI=1S/C6H6N2O6S.C6H6N2O3.C6H6O2.Fe.2Na/c7-4-1-3(8(10)11)2-5(6(4)9)15(12,13)14;7-5-3-4(8(10)11)1-2-6(5)9;7-5-2-1-3-6(8)4-5;;;/h1-2,9H,7H2,(H,12,13,14);1-3,9H,7H2;1-4,7-8H;;;/q;;;;;+1/p-1",-0.994056687,NC1=CC(=CC(=C1O)S([O-])(=O)=O)[N+]([O-])=O,0.020350275,G5,A,UVCB,Multi-constituent Substances,Negative
A-2843,"InChI=1S/C30H25N5O8S2.2Na/c1-18-14-26(27(43-2)17-25(18)33-32-21-8-11-23(12-9-21)44(37,38)39)34-35-29-28(45(40,41)42)16-19-15-22(10-13-24(19)30(29)36)31-20-6-4-3-5-7-20;;/h3-17,31,34H,1-2H3,(H,37,38,39)(H,40,41,42);;/q;2*+1/p-2/b33-32?,35-29+;;",-2.045401474,COC1=CC(N=NC2=CC=C(C=C2)S([O-])(=O)=O)=C(C)C=C1NN=C1C(=O)C2=CC=C(NC3=CC=CC=C3)C=C2C=C1S([O-])(=O)=O,0,G1,A,mono-constituent,None,Negative