ID,InChI,Solubility,SMILEScurated,SD,Group,Dataset,Composition,Error,Charge
A-5743,"InChI=1S/C23H17NO7/c24-20-17(29-10-11-30-23(28)31-13-6-2-1-3-7-13)12-16(25)18-19(20)22(27)15-9-5-4-8-14(15)21(18)26/h1-9,12,25H,10-11,24H2",-8.054415311,NC1=C(OCCOC(=O)OC2=CC=CC=C2)C=C(O)C2=C1C(=O)C1=CC=CC=C1C2=O,0,G1,A,None,None,Uncharged
A-5745,"InChI=1S/C49H96O6/c1-3-5-7-9-11-13-15-17-19-21-23-25-27-29-31-33-35-37-39-41-47(52)54-45-49(43-50,44-51)46-55-48(53)42-40-38-36-34-32-30-28-26-24-22-20-18-16-14-12-10-8-6-4-2/h50-51H,3-46H2,1-2H3",-8.348750336,CCCCCCCCCCCCCCCCCCCCCC(=O)OCC(CO)(CO)COC(=O)CCCCCCCCCCCCCCCCCCCCC,0,G1,A,None,None,Uncharged
A-5746,"InChI=1S/C34H28Cl2N8O2/c1-19-5-11-25(12-6-19)43-33(45)31(21(3)41-43)39-37-29-15-9-23(17-27(29)35)24-10-16-30(28(36)18-24)38-40-32-22(4)42-44(34(32)46)26-13-7-20(2)8-14-26/h5-18,31-32H,1-4H3",-8.269885037,CC1=NN(C(=O)C1N=NC1=CC=C(C=C1Cl)C1=CC=C(N=NC2C(C)=NN(C2=O)C2=CC=C(C)C=C2)C(Cl)=C1)C1=CC=C(C)C=C1,0,G1,A,None,None,Uncharged
A-5747,InChI=1S/C23H12OS/c24-23-17-7-2-1-5-13(17)15-11-12-20-22-16(9-10-18(23)21(15)22)14-6-3-4-8-19(14)25-20/h1-12H,-7.982807307,O=C1C2=CC=CC=C2C2=CC=C3SC4=CC=CC=C4C4=C3C2=C1C=C4,0,G1,A,None,None,Uncharged
A-5749,"InChI=1S/C23H28O6/c1-17(24)26-13-15-28-21-9-5-19(6-10-21)23(3,4)20-7-11-22(12-8-20)29-16-14-27-18(2)25/h5-12H,13-16H2,1-4H3",-8.058503028,CC(=O)OCCOC1=CC=C(C=C1)C(C)(C)C1=CC=C(OCCOC(C)=O)C=C1,0,G1,A,None,None,Uncharged
A-5750,"InChI=1S/C27H24N6O6S/c1-14-10-21(22(39-3)13-23(14)40(37,38)28-2)32-33-24-17-7-5-4-6-15(17)11-18(25(24)34)26(35)29-16-8-9-19-20(12-16)31-27(36)30-19/h4-13,28,32H,1-3H3,(H,29,35)(H2,30,31,36)/b33-24-",-8.217167979,,0,G1,A,None,None,Uncharged
A-5753,"InChI=1S/C16H10ClN3O3/c17-13-9-11(20(22)23)6-7-14(13)18-19-16-12-4-2-1-3-10(12)5-8-15(16)21/h1-9,18H/b19-16-",-7.996998283,[O-][N+](=O)C1=CC=C(NN=C2C(=O)C=CC3=CC=CC=C23)C(Cl)=C1,0,G1,A,None,None,PureChargeSeparation
A-5754,"InChI=1S/C17H13N3O3/c1-11-6-8-14(15(10-11)20(22)23)18-19-17-13-5-3-2-4-12(13)7-9-16(17)21/h2-10,18H,1H3/b19-17-",-7.96906134,CC1=CC=C(NN=C2C(=O)C=CC3=CC=CC=C23)C(=C1)[N+]([O-])=O,0,G1,A,None,None,PureChargeSeparation
A-5755,"InChI=1S/C29H25N5O5/c1-2-3-14-39-28(37)20-10-6-7-11-22(20)33-34-25-19-9-5-4-8-17(19)15-21(26(25)35)27(36)30-18-12-13-23-24(16-18)32-29(38)31-23/h4-13,15-16,33H,2-3,14H2,1H3,(H,30,36)(H2,31,32,38)/b34-25-",-8.213807356,,0,G1,A,None,None,Uncharged
A-5756,InChI=1S/2Cr.3O,-7.68626782,O=[Cr]O[Cr]=O,0.249766928,G5,A,None,None,Uncharged
A-5757,"InChI=1S/C57H110O6/c1-51(2)43-37-31-25-19-13-7-10-16-22-28-34-40-46-55(58)61-49-54(63-57(60)48-42-36-30-24-18-12-9-15-21-27-33-39-45-53(5)6)50-62-56(59)47-41-35-29-23-17-11-8-14-20-26-32-38-44-52(3)4/h51-54H,7-50H2,1-6H3",-8.458760141,CC(C)CCCCCCCCCCCCCCC(=O)OCC(COC(=O)CCCCCCCCCCCCCCC(C)C)OC(=O)CCCCCCCCCCCCCCC(C)C,0,G1,A,None,None,Uncharged
A-5758,"InChI=1S/C33H54O6/c1-7-13-16-25(10-4)22-37-31(34)28-19-20-29(32(35)38-23-26(11-5)17-14-8-2)30(21-28)33(36)39-24-27(12-6)18-15-9-3/h19-21,25-27H,7-18,22-24H2,1-6H3",-8.252098343,CCCCC(CC)COC(=O)C1=CC=C(C(=O)OCC(CC)CCCC)C(=C1)C(=O)OCC(CC)CCCC,0,G1,A,None,None,Uncharged
A-5759,"InChI=1S/C25H20N4O4/c1-33-21-9-5-4-8-20(21)27-25(32)19-14-16-6-2-3-7-18(16)22(23(19)30)29-28-17-12-10-15(11-13-17)24(26)31/h2-14,28H,1H3,(H2,26,31)(H,27,32)/b29-22-",-8.166784234,COC1=CC=CC=C1NC(=O)C1=CC2=CC=CC=C2C(N=NC2=CC=C(C=C2)C(N)=O)=C1O,0,G1,A,None,None,Uncharged
A-5764,InChI=1S/O.Sn,-8.82836984,O=[Sn],0,G1,A,None,None,Uncharged
A-5769,"InChI=1S/C24H46O6/c1-9-13-15-19(11-3)21(25)27-29-23(5,6)17-18-24(7,8)30-28-22(26)20(12-4)16-14-10-2/h19-20H,9-18H2,1-8H3",-7.188496045,CCCCC(CC)C(=O)OOC(C)(C)CCC(C)(C)OOC(=O)C(CC)CCCC,0,G1,A,None,Unstable,Uncharged
A-5770,"InChI=1S/C22H30O2S/c1-13-9-17(23)15(21(3,4)5)11-19(13)25-20-12-16(22(6,7)8)18(24)10-14(20)2/h9-12,23-24H,1-8H3",-7.112066324,CC1=CC(O)=C(C=C1SC1=CC(=C(O)C=C1C)C(C)(C)C)C(C)(C)C,0,G1,A,None,None,Uncharged
A-5778,"InChI=1S/C21H20Br4O4/c1-21(2,11-3-15(22)19(16(23)4-11)28-9-13-7-26-13)12-5-17(24)20(18(25)6-12)29-10-14-8-27-14/h3-6,13-14H,7-10H2,1-2H3",-7.395301899,CC(C)(C1=CC(Br)=C(OCC2CO2)C(Br)=C1)C1=CC(Br)=C(OCC2CO2)C(Br)=C1,0,G1,A,None,None,Uncharged
A-5780,"InChI=1S/C18H13ClN2O6S.Ca/c1-9-6-15(28(25,26)27)14(8-13(9)19)20-21-16-11-5-3-2-4-10(11)7-12(17(16)22)18(23)24;/h2-8,20H,1H3,(H,23,24)(H,25,26,27);/q;+2/p-2/b21-16-;",-6.263770478,CC1=CC(=C(C=C1Cl)N=NC1=C(O)C(=CC2=CC=CC=C12)C([O-])=O)S([O-])(=O)=O,0,G1,A,None,None,Negative
A-5783,"InChI=1S/C21H14N2O6S.Ca/c24-19-16(21(25)26)11-13-6-2-3-7-14(13)18(19)23-22-17-10-9-12-5-1-4-8-15(12)20(17)30(27,28)29;/h1-11,22H,(H,25,26)(H,27,28,29);/q;+2/p-2/b23-18-;",-6.279395406,OC1=C(N=NC2=C(C3=CC=CC=C3C=C2)S([O-])(=O)=O)C2=CC=CC=C2C=C1C([O-])=O,0,G1,A,None,None,Negative
A-5785,"InChI=1S/C26H20ClN5O4/c1-14(33)29-17-7-9-18(10-8-17)30-26(36)20-12-15-4-2-3-5-19(15)23(24(20)34)32-31-22-13-16(25(28)35)6-11-21(22)27/h2-13,31H,1H3,(H2,28,35)(H,29,33)(H,30,36)/b32-23-",-7.304443807,CC(=O)NC1=CC=C(NC(=O)C2=CC3=CC=CC=C3C(N=NC3=CC(=CC=C3Cl)C(N)=O)=C2O)C=C1,0,G1,A,None,None,Uncharged
A-5786,"InChI=1S/C6H7NO2/c1-3-9-6(8)5(2)4-7/h2-3H2,1H3",-6.71713979,CCOC(=O)C(=C)C#N,0,G1,A,None,Unstable,Uncharged
A-5788,"InChI=1S/2C18H36O3.Zn/c2*1-2-3-4-11-14-17(19)15-12-9-7-5-6-8-10-13-16-18(20)21;/h2*17,19H,2-16H2,1H3,(H,20,21);/q;;+2/p-2",-5.454848129,CCCCCCC(O)CCCCCCCCCCC([O-])=O,1.290716335,G4,A,None,None,Negative
A-5790,"InChI=1S/C9H3Cl4NO2.C6H8N2.CH3O.Na/c1-16-9(15)4-3(2-14)5(10)7(12)8(13)6(4)11;7-5-1-2-6(8)4-3-5;1-2;/h1H3;1-4H,7-8H2;1H3;/q;;-1;+1",-6.30586781,[Na+].CO.NC1=CC=C(N)C=C1.COC(=O)C1=C(Cl)C(Cl)=C(Cl)C(Cl)=C1C#N,0.440406796,G3,A,None,Cosolvent Buffer,Positive
A-5792,"InChI=1S/C28H16N2O4/c29-19-11-9-13(21-23(19)27(33)17-7-3-1-5-15(17)25(21)31)14-10-12-20(30)24-22(14)26(32)16-6-2-4-8-18(16)28(24)34/h1-12H,29-30H2",-6.293710563,NC1=CC=C(C2=CC=C(N)C3=C2C(=O)C2=CC=CC=C2C3=O)C2=C1C(=O)C1=CC=CC=C1C2=O,0.478084215,G3,A,None,None,Uncharged
A-5801,"InChI=1S/C14H28O4/c1-6-9-10-12(7-2)11-16-13(15)17-18-14(4,5)8-3/h12H,6-11H2,1-5H3",-6.088238681,CCCCC(CC)COC(=O)OOC(C)(C)CC,0,G1,A,None,Unstable,Uncharged
A-5803,"InChI=1S/C9H5F15O/c1-2-25-6(15,3(10,7(16,17)18)8(19,20)21)4(11,12)5(13,14)9(22,23)24/h2H2,1H3",-7.288734017,CCOC(F)(C(F)(F)C(F)(F)C(F)(F)F)C(F)(C(F)(F)F)C(F)(F)F,0.102263981,G3,A,None,None,Uncharged
A-5808,"InChI=1S/2C17H13ClN2O4S.Sr/c2*1-10-8-14(16(9-13(10)18)25(22,23)24)19-20-17-12-5-3-2-4-11(12)6-7-15(17)21;/h2*2-9,19H,1H3,(H,22,23,24);/q;;+2/p-2/b2*20-17-;",-7.622859284,CC1=CC(NN=C2C(=O)C=CC3=CC=CC=C23)=C(C=C1Cl)S([O-])(=O)=O,0,G1,A,None,None,Negative
A-5811,"InChI=1S/C35H62O3/c1-8-9-10-11-12-13-14-15-16-17-18-19-20-21-22-23-26-38-32(36)25-24-29-27-30(34(2,3)4)33(37)31(28-29)35(5,6)7/h27-28,37H,8-26H2,1-7H3",-8.270149868,CCCCCCCCCCCCCCCCCCOC(=O)CCC1=CC(=C(O)C(=C1)C(C)(C)C)C(C)(C)C,0.99498869,G4,A,None,None,Uncharged
A-5812,"InChI=1S/C36H32Cl4N6O4/c1-17-7-9-29(19(3)11-17)41-35(49)33(21(5)47)45-43-31-15-25(37)23(13-27(31)39)24-14-28(40)32(16-26(24)38)44-46-34(22(6)48)36(50)42-30-10-8-18(2)12-20(30)4/h7-16,33-34H,1-6H3,(H,41,49)(H,42,50)",-8.462687047,CC(=O)C(=N[N-]C1=CC(Cl)=C(C=C1Cl)C1=CC(Cl)=C([N-]N=C(C(C)=O)C(=O)NC2=CC=C(C)C=C2C)C=C1Cl)C(=O)NC1=CC=C(C)C=C1C,0,G1,A,None,None,Negative
A-5813,"InChI=1S/C34H30Cl2N6O6/c1-19(43)31(33(45)37-27-9-5-7-11-29(27)47-3)41-39-25-15-13-21(17-23(25)35)22-14-16-26(24(36)18-22)40-42-32(20(2)44)34(46)38-28-10-6-8-12-30(28)48-4/h5-18,31-32H,1-4H3,(H,37,45)(H,38,46)",-8.423596194,COC1=CC=CC=C1NC(=O)C(=N[N-]C1=CC=C(C=C1Cl)C1=CC=C([N-]N=C(C(C)=O)C(=O)NC2=CC=CC=C2OC)C(Cl)=C1)C(C)=O,0,G1,A,None,None,Negative
A-5814,"InChI=1S/C37H29N3O3S/c41-44(42,43)36-14-8-7-13-35(36)40-34-25-19-29(20-26-34)37(27-15-21-32(22-16-27)38-30-9-3-1-4-10-30)28-17-23-33(24-18-28)39-31-11-5-2-6-12-31/h1-26,38-39H,(H,41,42,43)",-8.377105088,[O-]S(=O)(=O)C1=CC=CC=C1[NH+]=C1C=CC(C=C1)=C(C1=CC=C(NC2=CC=CC=C2)C=C1)C1=CC=C(NC2=CC=CC=C2)C=C1,0,G1,A,None,None,Zwitterion
A-5817,"InChI=1S/C22H21N3O6/c1-30-9-10-31-8-4-7-25-21(28)15-16(22(25)29)18(24)14-13(17(15)23)19(26)11-5-2-3-6-12(11)20(14)27/h2-3,5-6H,4,7-10,23-24H2,1H3",-8.26504866,COCCOCCCN1C(=O)C2=C(C1=O)C(N)=C1C(=O)C3=CC=CC=C3C(=O)C1=C2N,0,G1,A,None,None,Uncharged
A-5818,"InChI=1S/C26H18N2O4/c27-21-19-20(24(30)18-14-8-7-13-17(18)23(19)29)22(28)26(32-16-11-5-2-6-12-16)25(21)31-15-9-3-1-4-10-15/h1-14H,27-28H2",-8.271656595,NC1=C(OC2=CC=CC=C2)C(OC2=CC=CC=C2)=C(N)C2=C1C(=O)C1=CC=CC=C1C2=O,0.028309917,G5,A,None,None,Uncharged
A-5819,"InChI=1S/C36H28Cl2N8O6/c1-3-51-35(49)31-29(33(47)45(43-31)23-11-7-5-8-12-23)41-39-27-17-15-21(19-25(27)37)22-16-18-28(26(38)20-22)40-42-30-32(36(50)52-4-2)44-46(34(30)48)24-13-9-6-10-14-24/h5-20,29-30H,3-4H2,1-2H3",-8.526560129,CCOC(=O)C1=C(N=NC2=CC=C(C=C2Cl)C2=CC=C(N=NC3=C([N-]N(C3=O)C3=CC=CC=C3)C(=O)OCC)C(Cl)=C2)C(=O)N([N-]1)C1=CC=CC=C1,0,G1,A,None,None,Negative
A-5820,InChI=1S/Se,-6.575187845,[Se],0,G1,A,None,None,Uncharged
A-5823,"InChI=1S/C36H32Cl4N6O8.C36H33Cl3N6O6.C36H34Cl2N6O4/c1-17(47)33(35(49)41-27-15-29(51-3)23(39)13-31(27)53-5)45-43-25-9-7-19(11-21(25)37)20-8-10-26(22(38)12-20)44-46-34(18(2)48)36(50)42-28-16-30(52-4)24(40)14-32(28)54-6;1-18-7-10-27(19(2)13-18)40-35(48)33(20(3)46)44-42-28-11-8-22(14-24(28)37)23-9-12-29(25(38)15-23)43-45-34(21(4)47)36(49)41-30-17-31(50-5)26(39)16-32(30)51-6;1-19-7-11-29(21(3)15-19)39-35(47)33(23(5)45)43-41-31-13-9-25(17-27(31)37)26-10-14-32(28(38)18-26)42-44-34(24(6)46)36(48)40-30-12-8-20(2)16-22(30)4/h7-16,33-34H,1-6H3,(H,41,49)(H,42,50);7-17,33-34H,1-6H3,(H,40,48)(H,41,49);7-18,33-34H,1-6H3,(H,39,47)(H,40,48)",-9.052340862,COC1=CC(NC(=O)C(=N[N-]C2=CC=C(C=C2Cl)C2=CC=C([N-]N=C(C(C)=O)C(=O)NC3=CC(OC)=C(Cl)C=C3OC)C(Cl)=C2)C(C)=O)=C(OC)C=C1Cl,0,G1,A,None,None,Negative
A-5824,"InChI=1S/C14H26O2/c1-12(2)10-8-6-5-7-9-11-16-14(15)13(3)4/h12H,3,5-11H2,1-2,4H3",-6.055946609,CC(C)CCCCCCCOC(=O)C(C)=C,0.054260689,G3,A,None,None,Uncharged
A-5829,"InChI=1S/C17H15ClN4O5/c1-10(23)16(17(24)19-13-5-3-4-6-15(13)27-2)21-20-12-8-7-11(18)9-14(12)22(25)26/h3-9,16H,1-2H3,(H,19,24)",-7.306378354,COC1=CC=CC=C1NC(=O)C(=N[N-]C1=CC=C(Cl)C=C1[N+]([O-])=O)C(C)=O,0,G1,A,None,None,Negative
A-5831,InChI=1S/Cd.Te,-7.101479355,[Cd]=[Te],0.791401241,G4,A,None,None,Uncharged
A-5832,"InChI=1S/2C18H15ClN2O4S.Ba/c2*1-2-11-9-15(17(10-14(11)19)26(23,24)25)20-21-18-13-6-4-3-5-12(13)7-8-16(18)22;/h2*3-10,20H,2H2,1H3,(H,23,24,25);/q;;+2/p-2/b2*21-18+;",-5.69286018,CCC1=CC(NN=C2C(=O)C=CC3=CC=CC=C23)=C(C=C1Cl)S([O-])(=O)=O,0.903557473,G2,A,None,None,Negative
A-5835,"InChI=1S/C42H22Cl4F6N6O4/c43-27-11-9-21(41(47,48)49)15-33(27)55-57-35-23-7-3-1-5-19(23)13-25(37(35)59)39(61)53-31-17-30(46)32(18-29(31)45)54-40(62)26-14-20-6-2-4-8-24(20)36(38(26)60)58-56-34-16-22(42(50,51)52)10-12-28(34)44/h1-18,55-56H,(H,53,61)(H,54,62)/b57-35-,58-36+",-7.692243372,OC1=C(N=NC2=CC(=CC=C2Cl)C(F)(F)F)C2=CC=CC=C2C=C1C(=O)NC1=CC(Cl)=C(NC(=O)C2=CC3=CC=CC=C3C(N=NC3=CC(=CC=C3Cl)C(F)(F)F)=C2O)C=C1Cl,0,G1,A,None,None,Uncharged
A-5836,"InChI=1S/C21H20/c1-17-9-8-14-20(15-18-10-4-2-5-11-18)21(17)16-19-12-6-3-7-13-19/h2-14H,15-16H2,1H3",-7.179920249,CC1=CC=CC(CC2=CC=CC=C2)=C1CC1=CC=CC=C1,0,G1,A,None,None,Uncharged
A-5838,"InChI=1S/CH2O3.Co/c2-1(3)4;/h(H2,2,3,4);/q;+2/p-2",-4.837536592,OC([O-])=O,1.007623722,G4,A,None,None,Negative
A-5839,"InChI=1S/C18H15N5O5/c1-9(24)15(23-22-12-5-3-2-4-11(12)17(26)27)16(25)19-10-6-7-13-14(8-10)21-18(28)20-13/h2-8,15H,1H3,(H,19,25)(H,26,27)(H2,20,21,28)",-7.330901471,CC(=O)C(=N[N-]C1=CC=CC=C1C([O-])=O)C(=O)NC1=CC=C2NC(=O)NC2=C1,0,G1,A,None,Prediction Estimation,Negative
A-5841,"InChI=1S/C36H32N10O8/c1-19(47)31(33(49)37-21-11-13-23-27(17-21)41-35(51)39-23)45-43-25-7-3-5-9-29(25)53-15-16-54-30-10-6-4-8-26(30)44-46-32(20(2)48)34(50)38-22-12-14-24-28(18-22)42-36(52)40-24/h3-14,17-18,31-32H,15-16H2,1-2H3,(H,37,49)(H,38,50)(H2,39,41,51)(H2,40,42,52)",-7.634485568,CC(=O)C(=N[N-]C1=CC=CC=C1OCCOC1=CC=CC=C1[N-]N=C(C(C)=O)C(=O)NC1=CC=C2NC(=O)NC2=C1)C(=O)NC1=CC=C2NC(=O)NC2=C1,0,G1,A,None,None,Negative
A-5842,"InChI=1S/C24H15Cl2N5O3/c25-13-5-7-17(26)19(10-13)30-31-21-15-4-2-1-3-12(15)9-16(22(21)32)23(33)27-14-6-8-18-20(11-14)29-24(34)28-18/h1-11,30H,(H,27,33)(H2,28,29,34)/b31-21-",-7.461800322,,0,G1,A,None,None,Uncharged
A-5843,"InChI=1S/C16H13ClN4O7S.Ca/c1-9(22)15(16(23)18-12-5-3-2-4-11(12)17)20-19-13-7-6-10(29(26,27)28)8-14(13)21(24)25;/h2-8,15H,1H3,(H,18,23)(H,26,27,28);/q;+2/p-1",-5.451460763,CC(=O)C(=N[N-]C1=CC=C(C=C1[N+]([O-])=O)S([O-])(=O)=O)C(=O)NC1=CC=CC=C1Cl,0,G1,A,None,None,Negative
A-5844,InChI=1S/Fe,-5.519097591,[Fe],0.717700149,G4,A,None,None,Uncharged
A-5847,InChI=1S/C12H24/c1-2-4-6-8-10-12-11-9-7-5-3-1/h1-12H2,-7.02202606,C1CCCCCCCCCCC1,1.397940009,G2,A,None,None,Uncharged
A-5849,"InChI=1S/C24H31NO4/c1-4-7-8-11-16-29-24(28)20-13-10-9-12-19(20)23(27)21-15-14-18(17-22(21)26)25(5-2)6-3/h9-10,12-15,17,26H,4-8,11,16H2,1-3H3",-7.395233539,CCCCCCOC(=O)C1=CC=CC=C1C(=O)C1=CC=C(C=C1O)N(CC)CC,0.102059991,G3,A,None,None,Uncharged
A-5851,InChI=1S/BH2/h1H2,-4.843574339,[B],0,G1,A,None,None,Uncharged
A-5852,"InChI=1S/2C8H16O2.Co/c2*1-3-5-6-7(4-2)8(9)10;/h2*7H,3-6H2,1-2H3,(H,9,10);/q;;+2/p-2",-5.347977516,CCCCC(CC)C([O-])=O,1.946375044,G4,A,None,None,Negative
A-5853,"InChI=1S/C17H20Cl6O4/c1-3-5-7-26-13(24)9-10(14(25)27-8-6-4-2)16(21)12(19)11(18)15(9,20)17(16,22)23/h9-10H,3-8H2,1-2H3",-7.509558903,CCCCOC(=O)C1C(C(=O)OCCCC)C2(Cl)C(Cl)=C(Cl)C1(Cl)C2(Cl)Cl,0,G1,A,None,None,Uncharged
A-5854,InChI=1S/C18H10N2O/c21-18-13-8-2-1-7-12(13)17-19-14-9-3-5-11-6-4-10-15(16(11)14)20(17)18/h1-10H,-7.255740326,O=C1N2C(=NC3=CC=CC4=CC=CC2=C34)C2=CC=CC=C12,0,G1,A,None,None,Uncharged
A-5863,"InChI=1S/C20H10Cl2N2O2/c21-9-1-3-15-11(5-9)19(25)13-8-18-14(7-17(13)23-15)20(26)12-6-10(22)2-4-16(12)24-18/h1-8H,(H,23,25)(H,24,26)",-7.419805396,ClC1=CC=C2NC3=CC4=C(NC5=CC=C(Cl)C=C5C4=O)C=C3C(=O)C2=C1,0,G1,A,None,None,Uncharged
A-5864,"InChI=1S/C18H14F3N5O3/c1-9(27)15(26-25-12-5-3-2-4-11(12)18(19,20)21)16(28)22-10-6-7-13-14(8-10)24-17(29)23-13/h2-8,15H,1H3,(H,22,28)(H2,23,24,29)",-7.455526833,CC(=O)C(=N[N-]C1=CC=CC=C1C(F)(F)F)C(=O)NC1=CC=C2NC(=O)NC2=C1,0,G1,A,None,None,Negative
A-5865,"InChI=1S/C50H42Cl2N6O8/c1-27-16-17-33(49(63)65-20-18-51)26-41(27)55-57-43-34-13-7-5-11-31(34)24-37(45(43)59)47(61)53-39-22-30(4)40(23-29(39)3)54-48(62)38-25-32-12-6-8-14-35(32)44(46(38)60)58-56-42-28(2)10-9-15-36(42)50(64)66-21-19-52/h5-17,22-26,55-56H,18-21H2,1-4H3,(H,53,61)(H,54,62)/b57-43+,58-44-",-7.814241029,CC1=CC(NC(=O)C2=CC3=CC=CC=C3C(N=NC3=C(C)C=CC=C3C(=O)OCCCl)=C2O)=C(C)C=C1NC(=O)C1=CC2=CC=CC=C2C(N=NC2=CC(=CC=C2C)C(=O)OCCCl)=C1O,0,G1,A,None,None,Uncharged
A-5866,"InChI=1S/C17H13ClN6O5/c1-8(25)15(23-22-12-4-2-9(18)6-14(12)24(28)29)16(26)19-10-3-5-11-13(7-10)21-17(27)20-11/h2-7,15H,1H3,(H,19,26)(H2,20,21,27)",-7.473779877,CC(=O)C(=N[N-]C1=CC=C(Cl)C=C1[N+]([O-])=O)C(=O)NC1=CC=C2NC(=O)NC2=C1,0,G1,A,None,None,Negative
A-5868,"InChI=1S/C18H30O4/c1-15(2)17(19)21-13-11-9-7-5-6-8-10-12-14-22-18(20)16(3)4/h1,3,5-14H2,2,4H3",-6.350206051,CC(=C)C(=O)OCCCCCCCCCCOC(=O)C(C)=C,0,G1,A,None,None,Uncharged
A-5872,"InChI=1S/C20H10Cl2N2O2/c21-13-5-1-3-9-17(13)23-15-8-12-16(7-11(15)19(9)25)24-18-10(20(12)26)4-2-6-14(18)22/h1-8H,(H,23,25)(H,24,26)",-6.457321758,ClC1=CC=CC2=C1NC1=CC3=C(NC4=C(Cl)C=CC=C4C3=O)C=C1C2=O,0,G1,A,None,None,Uncharged
A-5875,"InChI=1S/C17H16N4O4/c1-11-8-9-14(15(10-11)21(24)25)19-20-16(12(2)22)17(23)18-13-6-4-3-5-7-13/h3-10,16H,1-2H3,(H,18,23)",-7.417968366,CC(=O)C(=N[N-]C1=CC=C(C)C=C1[N+]([O-])=O)C(=O)NC1=CC=CC=C1,0,G1,A,None,None,Negative
A-5883,"InChI=1S/C20H38O4/c1-3-5-7-9-11-13-15-17-19(21)23-24-20(22)18-16-14-12-10-8-6-4-2/h3-18H2,1-2H3",-6.44975236,CCCCCCCCCC(=O)OOC(=O)CCCCCCCCC,0,G1,A,None,Below LoD Below LoQ,Uncharged
A-5884,"InChI=1S/C24H17ClN4O4/c1-14-6-2-5-9-19(14)26-24(31)18-12-15-7-3-4-8-17(15)22(23(18)30)28-27-20-11-10-16(25)13-21(20)29(32)33/h2-13,27H,1H3,(H,26,31)/b28-22-",-7.56321449,CC1=CC=CC=C1NC(=O)C1=CC2=CC=CC=C2C(N=NC2=CC=C(Cl)C=C2[N+]([O-])=O)=C1O,0,G1,A,None,None,PureChargeSeparation
A-5885,"InChI=1S/C29H20N4O3.Ni/c34-27-11-9-17-5-1-3-7-19(17)21(27)15-30-23-13-25-26(33-29(36)32-25)14-24(23)31-16-22-20-8-4-2-6-18(20)10-12-28(22)35;/h1-16,34-35H,(H2,32,33,36);/q;+2/p-2",-7.62669423,,0,G1,A,None,None,Uncharged
A-5886,InChI=1S/2O.Pt/q2*-2;+4,-7.26274955,O.O.[Pt+4],0.763818815,G4,A,None,None,Uncharged
A-5887,InChI=1S/Nd,-7.079904468,[Nd],0,G1,A,None,None,Uncharged
A-5888,InChI=1S/Co.O,-5.798391069,O=[Co],1.313112161,G4,A,None,None,Uncharged
A-5894,"InChI=1S/2C32H26N4O7S.Ca/c2*1-19-10-11-21(31(38)34-23-7-5-8-25(18-23)44(40,41)42)17-28(19)35-36-29-26-9-4-3-6-20(26)16-27(30(29)37)32(39)33-22-12-14-24(43-2)15-13-22;/h2*3-18,35H,1-2H3,(H,33,39)(H,34,38)(H,40,41,42);/q;;+2/p-2/b2*36-29-;",-7.050931183,COC1=CC=C(NC(=O)C2=CC3=CC=CC=C3C(N=NC3=CC(=CC=C3C)C(=O)NC3=CC=CC(=C3)S([O-])(=O)=O)=C2O)C=C1,0,G1,A,None,None,Negative
A-5895,"InChI=1S/C26H22N4O4/c1-2-34-22-10-6-5-9-21(22)28-26(33)20-15-17-7-3-4-8-19(17)23(24(20)31)30-29-18-13-11-16(12-14-18)25(27)32/h3-15,29H,2H2,1H3,(H2,27,32)(H,28,33)/b30-23+",-7.581973548,CCOC1=CC=CC=C1NC(=O)C1=CC2=CC=CC=C2C(N=NC2=CC=C(C=C2)C(N)=O)=C1O,0,G1,A,None,None,Uncharged
A-5896,"InChI=1S/C24H18N4O4/c1-15-11-12-18(28(31)32)14-21(15)26-27-22-19-10-6-5-7-16(19)13-20(23(22)29)24(30)25-17-8-3-2-4-9-17/h2-14,26H,1H3,(H,25,30)/b27-22-",-7.55796778,CC1=CC=C(C=C1N=NC1=C(O)C(=CC2=CC=CC=C12)C(=O)NC1=CC=CC=C1)[N+]([O-])=O,0,G1,A,None,None,PureChargeSeparation
A-5898,"InChI=1S/C17H14N6O5/c1-9(24)15(22-21-10-2-5-12(6-3-10)23(27)28)16(25)18-11-4-7-13-14(8-11)20-17(26)19-13/h2-8,15H,1H3,(H,18,25)(H2,19,20,26)",-7.525540341,CC(=O)C(=N[N-]C1=CC=C(C=C1)[N+]([O-])=O)C(=O)NC1=CC=C2NC(=O)NC2=C1,0,G1,A,None,None,Negative
A-5899,"InChI=1S/C40H23Cl5N6O4/c41-22-9-12-29(43)33(17-22)48-50-35-25-7-3-1-5-20(25)15-27(37(35)52)39(54)46-24-11-14-32(31(45)19-24)47-40(55)28-16-21-6-2-4-8-26(21)36(38(28)53)51-49-34-18-23(42)10-13-30(34)44/h1-19,48-49H,(H,46,54)(H,47,55)/b50-35+,51-36+",-7.869298263,OC1=C(N=NC2=CC(Cl)=CC=C2Cl)C2=CC=CC=C2C=C1C(=O)NC1=CC=C(NC(=O)C2=CC3=CC=CC=C3C(N=NC3=CC(Cl)=CC=C3Cl)=C2O)C(Cl)=C1,0,G1,A,None,None,Uncharged
A-5901,"InChI=1S/C20H34O4/c1-17(2)19(21)23-15-13-11-9-7-5-6-8-10-12-14-16-24-20(22)18(3)4/h1,3,5-16H2,2,4H3",-7.484220298,CC(=C)C(=O)OCCCCCCCCCCCCOC(=O)C(C)=C,0,G1,A,None,None,Uncharged
A-5909,"InChI=1S/C25H21N7O5/c1-13(33)21(24(36)28-18-10-11-19-20(12-18)30-25(37)29-19)32-31-17-8-4-15(5-9-17)23(35)27-16-6-2-14(3-7-16)22(26)34/h2-12,21H,1H3,(H2,26,34)(H,27,35)(H,28,36)(H2,29,30,37)",-6.672808806,CC(=O)C(=N[N-]C1=CC=C(C=C1)C(=O)NC1=CC=C(C=C1)C(N)=O)C(=O)NC1=CC=C2NC(=O)NC2=C1,0,G1,A,None,None,Negative
A-5918,"InChI=1S/C36H34Cl2N6O6/c1-5-49-27-13-9-25(10-14-27)39-35(47)33(21(3)45)43-41-31-17-7-23(19-29(31)37)24-8-18-32(30(38)20-24)42-44-34(22(4)46)36(48)40-26-11-15-28(16-12-26)50-6-2/h7-20,33-34H,5-6H2,1-4H3,(H,39,47)(H,40,48)",-7.830582617,CCOC1=CC=C(NC(=O)C(=N[N-]C2=CC=C(C=C2Cl)C2=CC=C([N-]N=C(C(C)=O)C(=O)NC3=CC=C(OCC)C=C3)C(Cl)=C2)C(C)=O)C=C1,0,G1,A,None,None,Negative
A-5919,InChI=1S/C12H20N2S8/c15-11(13-7-3-1-4-8-13)17-19-21-22-20-18-12(16)14-9-5-2-6-10-14/h1-10H2,-7.631732206,S=C(SSSSSSC(=S)N1CCCCC1)N1CCCCC1,0,G1,A,None,None,Uncharged
A-5920,"InChI=1S/C20H12N2O2/c23-19-11-5-1-3-7-15(11)21-17-10-14-18(9-13(17)19)22-16-8-4-2-6-12(16)20(14)24/h1-10H,(H,21,23)(H,22,24)",-7.481773695,O=C1C2=CC=CC=C2NC2=CC3=C(NC4=CC=CC=C4C3=O)C=C12,0,G1,A,None,None,Uncharged
A-5921,"InChI=1S/C43H35Cl5N8O6/c1-20-16-35(52-43(62)39(24(5)58)56-54-37-18-26(13-15-30(37)47)41(60)50-33-11-7-9-28(45)22(33)3)31(48)19-34(20)51-42(61)38(23(4)57)55-53-36-17-25(12-14-29(36)46)40(59)49-32-10-6-8-27(44)21(32)2/h6-19,38-39H,1-5H3,(H,49,59)(H,50,60)(H,51,61)(H,52,62)",-7.971771107,CC(=O)C(=N[N-]C1=CC(=CC=C1Cl)C(=O)NC1=CC=CC(Cl)=C1C)C(=O)NC1=CC(Cl)=C(NC(=O)C(=N[N-]C2=CC(=CC=C2Cl)C(=O)NC2=CC=CC(Cl)=C2C)C(C)=O)C=C1C,0,G1,A,None,Below LoD Below LoQ,Negative
A-5922,"InChI=1S/C32H25ClN4O4/c1-19-12-14-22(33)18-26(19)35-32(40)25-16-20-8-6-7-11-24(20)29(30(25)38)37-36-27-17-21(13-15-28(27)41-2)31(39)34-23-9-4-3-5-10-23/h3-18,36H,1-2H3,(H,34,39)(H,35,40)/b37-29-",-7.752070739,COC1=CC=C(C=C1N=NC1=C(O)C(=CC2=CC=CC=C12)C(=O)NC1=CC(Cl)=CC=C1C)C(=O)NC1=CC=CC=C1,0,G1,A,None,None,Uncharged