ID,InChI,Solubility,SMILEScurated,SD,Group,Dataset,Composition,Error,Charge
A-742,"InChI=1S/C10H9NO3S/c11-10-3-1-2-7-4-5-8(6-9(7)10)15(12,13)14/h1-6H,11H2,(H,12,13,14)",-1.682279323,NC1=CC=CC2=CC=C(C=C12)S([O-])(=O)=O,0,G1,A,mono-constituent,None,Negative
A-743,"InChI=1S/C2HF5/c3-1(4)2(5,6)7/h1H",-1.416495791,FC(F)C(F)(F)F,0.036404115,G3,A,mono-constituent,None,Uncharged
A-744,"InChI=1S/C8H10O/c1-6-4-3-5-8(9)7(6)2/h3-5,9H,1-2H3",-1.424196078,CC1=CC=CC(O)=C1C,0.034182641,G3,A,mono-constituent,Non Valid pH,Uncharged
A-746,"InChI=1S/C9H5ClINO/c10-6-4-7(11)9(13)8-5(6)2-1-3-12-8/h1-4,13H",-1.822256226,OC1=C(I)C=C(Cl)C2=CC=CN=C12,0,G1,A,mono-constituent,None,Uncharged
A-749,"InChI=1S/C12H24O3/c1-6-8-9-10(7-2)11(13)14-15-12(3,4)5/h10H,6-9H2,1-5H3",-3.669517691,CCCCC(CC)C(=O)OOC(C)(C)C,0,G1,A,mono-constituent,Unstable,Uncharged
A-750,"InChI=1S/C11H18O/c1-7-8(6-12)4-9-5-10(7)11(9,2)3/h6-10H,4-5H2,1-3H3",-3.558040393,CC1C2CC(CC1C=O)C2(C)C,0,G1,A,mono-constituent,Non Valid pH,Uncharged
A-752,"InChI=1S/C11H16O/c1-11(2,12)9-8-10-6-4-3-5-7-10/h3-7,12H,8-9H2,1-2H3",-1.555639677,CC(C)(O)CCC1=CC=CC=C1,0,G1,A,mono-constituent,None,Uncharged
A-756,"InChI=1S/C8H7NO4/c1-6(10)13-8-4-2-7(3-5-8)9(11)12/h2-5H,1H3",-2.599256825,CC(=O)OC1=CC=C(C=C1)[N+]([O-])=O,0.029628413,G3,A,mono-constituent,None,PureChargeSeparation
A-758,"InChI=1S/C10H8O2/c1-7(11)10-6-8-4-2-3-5-9(8)12-10/h2-6H,1H3",-2.548488397,CC(=O)C1=CC2=CC=CC=C2O1,0,G1,A,mono-constituent,None,Uncharged
A-760,"InChI=1S/C6H5ClN2O3.ClH/c7-4-1-3(9(11)12)2-5(8)6(4)10;/h1-2,10H,8H2;1H",-2.699029836,NC1=CC(=CC(Cl)=C1[O-])[N+]([O-])=O,0,G1,A,None,None,Negative
A-761,"InChI=1S/C14H28O2/c1-5-11(15)10-16-13-9-7-6-8-12(13)14(2,3)4/h11-13,15H,5-10H2,1-4H3",-3.698734262,CCC(O)COC1CCCCC1C(C)(C)C,0,G1,A,multi-constituent,Non Valid pH,Uncharged
A-770,"InChI=1S/C10H20O2/c1-7(2)9-5-4-8(3)6-10(9)12-11/h7-11H,4-6H2,1-3H3",-2.588821642,CC(C)C1CCC(C)CC1OO,0,G1,A,UVCB,None,Uncharged
A-772,"InChI=1S/C11H15ClN2O2/c1-6(2)5-16-11(15)7-3-8(13)10(12)9(14)4-7/h3-4,6H,5,13-14H2,1-2H3",-2.738284824,CC(C)COC(=O)C1=CC(N)=C(Cl)C(N)=C1,0.005369099,G3,A,mono-constituent,Non Valid pH,Uncharged
A-773,"InChI=1S/C13H16O2/c14-12(11-7-3-1-4-8-11)13(15)9-5-2-6-10-13/h1,3-4,7-8,15H,2,5-6,9-10H2",-2.664780194,OC1(CCCCC1)C(=O)C1=CC=CC=C1,0,G1,A,mono-constituent,None,Uncharged
A-775,"InChI=1S/C7H10N2.2ClH/c8-9-6-7-4-2-1-3-5-7;;/h1-5,9H,6,8H2;2*1H",-1.646789011,[NH3+]NCC1=CC=CC=C1,0,G1,A,None,None,Positive
A-777,"InChI=1S/C24H20N6O3/c1-2-33-24-25-20-9-5-8-19(23(31)32)21(20)30(24)14-15-10-12-16(13-11-15)17-6-3-4-7-18(17)22-26-28-29-27-22/h3-13H,2,14H2,1H3,(H,31,32)(H,26,27,28,29)",-6.497781397,CCOC1=NC2=CC=CC(C([O-])=O)=C2N1CC1=CC=C(C=C1)C1=CC=CC=C1C1=NN=N[N-]1,0,G1,A,mono-constituent,None,Negative
A-779,InChI=1S/C3Cl3N3/c4-1-7-2(5)9-3(6)8-1,-2.622338856,ClC1=NC(Cl)=NC(Cl)=N1,0.057267988,G3,A,mono-constituent,Unstable,Uncharged
A-780,"InChI=1S/C22H30O4/c1-21(2,3)17-11-13(25-7)9-15(19(17)23)16-10-14(26-8)12-18(20(16)24)22(4,5)6/h9-12,23-24H,1-8H3",-6.776311258,COC1=CC(=C(O)C(=C1)C(C)(C)C)C1=CC(OC)=CC(=C1O)C(C)(C)C,0,G1,A,mono-constituent,Below LoD Below LoQ,Uncharged
A-781,"InChI=1S/C10H12N4O5S/c1-10(5-13-3-2-11-12-13)8(9(16)17)14-6(15)4-7(14)20(10,18)19/h2-3,7-8H,4-5H2,1H3,(H,16,17)/t7-,8+,10+/m1/s1",-1.838461676,CC1(CN2C=CN=N2)C(N2C(CC2=O)S1(=O)=O)C([O-])=O,0,G1,A,mono-constituent,None,Negative
A-784,"InChI=1S/C8H9NO/c1-9(7-10)8-5-3-2-4-6-8/h2-7H,1H3",-1.494780947,CN(C=O)C1=CC=CC=C1,0,G1,A,mono-constituent,None,Uncharged
A-787,"InChI=1S/C6H7NO6S2/c7-5-2-1-4(14(8,9)10)3-6(5)15(11,12)13/h1-3H,7H2,(H,8,9,10)(H,11,12,13)",-1.770093003,NC1=CC=C(C=C1S([O-])(=O)=O)S([O-])(=O)=O,0,G1,A,mono-constituent,None,Negative
A-789,"InChI=1S/C10H20O/c1-7(2)9-5-4-8(3)6-10(9)11/h7-11H,4-6H2,1-3H3/t8-,9+,10+/m1/s1",-2.560404377,CC(C)C1CCC(C)CC1O,0,G1,A,multi-constituent,None,Uncharged
A-790,"InChI=1S/C8H7NO5/c1-14-7-3-2-5(8(10)11)4-6(7)9(12)13/h2-4H,1H3,(H,10,11)",-2.661319514,COC1=CC=C(C=C1[N+]([O-])=O)C([O-])=O,0,G1,A,mono-constituent,None,Negative
A-791,"InChI=1S/C19H24O2/c1-18-9-7-13(20)11-12(18)3-4-14-15-5-6-17(21)19(15,2)10-8-16(14)18/h7,9,11,14-16H,3-6,8,10H2,1-2H3",-2.820459609,CC12CCC3C(CCC4=CC(=O)C=CC34C)C1CCC2=O,0.015229805,G3,A,None,None,Uncharged
A-792,"InChI=1S/C13H18O2/c1-13(2,3)12(14)15-10-9-11-7-5-4-6-8-11/h4-8H,9-10H2,1-3H3",-3.67528009,CC(C)(C)C(=O)OCCC1=CC=CC=C1,0,G1,A,mono-constituent,None,Uncharged
A-793,"InChI=1S/C10H18O2/c1-8(12-9(2)11)10-6-4-3-5-7-10/h8,10H,3-7H2,1-2H3",-3.597623767,CC(OC(C)=O)C1CCCCC1,0,G1,A,mono-constituent,None,Uncharged
A-794,"InChI=1S/C13H22O/c1-10-6-5-9-13(3,4)12(10)8-7-11(2)14/h5-9H2,1-4H3",-3.655044576,CC(=O)CCC1=C(C)CCCC1(C)C,0,G1,A,mono-constituent,None,Uncharged
A-797,"InChI=1S/C20H20P.BrH/c1-2-21(18-12-6-3-7-13-18,19-14-8-4-9-15-19)20-16-10-5-11-17-20;/h3-17H,2H2,1H3;1H/q+1;/p-1",-0.937218529,CC[P+](C1=CC=CC=C1)(C1=CC=CC=C1)C1=CC=CC=C1,0,G1,A,mono-constituent,None,Positive
A-800,"InChI=1S/C21H28N2O.C7H6O2/c1-5-23(6-2,15-19-13-8-7-9-14-19)16-20(24)22-21-17(3)11-10-12-18(21)4;8-7(9)6-4-2-1-3-5-6/h7-14H,5-6,15-16H2,1-4H3;1-5H,(H,8,9)",-1.020958606,CC[N+](CC)(CC(=O)NC1=C(C)C=CC=C1C)CC1=CC=CC=C1,0.012130577,G3,A,mono-constituent,Cosolvent Buffer,Positive
A-803,"InChI=1S/C6H14O/c1-2-3-4-5-6-7/h7H,2-6H2,1H3",-1.382910122,CCCCCCO,0.275210101,G5,A,mono-constituent,None,Uncharged
A-808,"InChI=1S/C10H20O/c1-7(2)9-5-4-8(3)6-10(9)11/h7-11H,4-6H2,1-3H3/t8-,9+,10-/m1/s1",-2.570623543,CC(C)C1CCC(C)CC1O,0.045117587,G5,A,multi-constituent,None,Uncharged
A-811,"InChI=1S/C11H17N/c1-4-10(2)6-5-7-11(3)8-9-12/h6,8H,4-5,7H2,1-3H3/b10-6+,11-8+",-3.589641142,CCC(C)=CCCC(C)=CC#N,0,G1,A,multi-constituent,None,Uncharged
A-812,"InChI=1S/C11H20O2/c1-3-4-5-6-8-11(2)9-7-10(12)13-11/h3-9H2,1-2H3",-2.643261824,CCCCCCC1(C)CCC(=O)O1,0,G1,A,multi-constituent,None,Uncharged
A-813,"InChI=1S/C5H12O/c1-5(2,3)6-4/h1-4H3",-0.323526854,COC(C)(C)C,0.088868539,G5,A,mono-constituent,None,Uncharged
A-816,"InChI=1S/C6H6N2O5S.Na/c7-5-2-1-4(8(9)10)3-6(5)14(11,12)13;/h1-3H,7H2,(H,11,12,13);/q;+1/p-1",-1.767738518,NC1=CC=C(C=C1S([O-])(=O)=O)[N+]([O-])=O,0,G1,A,mono-constituent,None,Negative
A-818,"InChI=1S/C15H26O/c1-10-5-8-15(16)13(2,3)11-6-7-14(15,4)12(10)9-11/h10-12,16H,5-9H2,1-4H3/t10-,11?,12?,14-,15?/m0/s1",-3.72590382,CC1CCC2(O)C(C)(C)C3CCC2(C)C1C3,0,G1,A,None,None,Uncharged
A-819,"InChI=1S/C16H18.C14H14.C14H22.C13H12.C12H16.C12H10.C11H10.C8H10.C8H8.C7H8.C6H6/c1-3-16(2,14-10-6-4-7-11-14)15-12-8-5-9-13-15;1-3-7-13(8-4-1)11-12-14-9-5-2-6-10-14;1-5-11-9-13(7-3)14(8-4)10-12(11)6-2;1-11-7-5-6-10-13(11)12-8-3-2-4-9-12;2*1-3-7-11(8-4-1)12-9-5-2-6-10-12;1-9-5-4-7-10-6-2-3-8-11(9)10;2*1-2-8-6-4-3-5-7-8;1-7-5-3-2-4-6-7;1-2-4-6-5-3-1/h4-13H,3H2,1-2H3;1-10H,11-12H2;9-10H,5-8H2,1-4H3;2-10H,1H3;1,3-4,7-8,12H,2,5-6,9-10H2;1-10H;2-8H,1H3;3-7H,2H2,1H3;2-7H,1H2;2-6H,1H3;1-6H",-4.588176842,CCC(C)(C1=CC=CC=C1)C1=CC=CC=C1,0.107421924,G3,A,None,Multi-constituent Substances,Uncharged
A-824,"InChI=1S/C14H15N/c1-3-7-13(8-4-1)11-15-12-14-9-5-2-6-10-14/h1-10,15H,11-12H2",-2.687630237,C([NH2+]CC1=CC=CC=C1)C1=CC=CC=C1,0,G1,A,mono-constituent,None,Positive
A-825,"InChI=1S/C7H7N3/c1-5-3-2-4-6-7(5)9-10-8-6/h2-4H,1H3,(H,8,9,10)",-1.516963539,CC1=C2NN=NC2=CC=C1,0,G1,A,None,None,Uncharged
A-826,"InChI=1S/C6H6N2O6S/c7-4-1-3(8(10)11)2-5(6(4)9)15(12,13)14/h1-2,9H,7H2,(H,12,13,14)",-1.766205568,NC1=CC(=CC(=C1O)S([O-])(=O)=O)[N+]([O-])=O,0,G1,A,mono-constituent,None,Negative
A-827,"InChI=1S/C40H44N12O16S4.4Na/c53-19-15-51(16-20-54)39-47-35(41-27-5-9-29(10-6-27)69(57,58)59)45-37(49-39)43-31-13-3-25(23-33(31)71(63,64)65)1-2-26-4-14-32(34(24-26)72(66,67)68)44-38-46-36(48-40(50-38)52(17-21-55)18-22-56)42-28-7-11-30(12-8-28)70(60,61)62;;;;/h1-14,23-24,53-56H,15-22H2,(H,57,58,59)(H,60,61,62)(H,63,64,65)(H,66,67,68)(H2,41,43,45,47,49)(H2,42,44,46,48,50);;;;/q;4*+1/p-4/b2-1+;;;;",-0.46428681,OCCN(CCO)C1=NC(NC2=CC=C(C=CC3=CC=C(NC4=NC(=NC(NC5=CC=C(C=C5)S([O-])(=O)=O)=N4)N(CCO)CCO)C(=C3)S([O-])(=O)=O)C=C2S([O-])(=O)=O)=NC(NC2=CC=C(C=C2)S([O-])(=O)=O)=N1,0.105426683,G3,A,None,None,Negative
A-830,"InChI=1S/C10H10O4/c1-13-9(11)7-5-3-4-6-8(7)10(12)14-2/h3-6H,1-2H3",-1.686157925,COC(=O)C1=CC=CC=C1C(=O)OC,0.132125129,G5,A,mono-constituent,None,Uncharged
A-831,"InChI=1S/C25H30N3.ClH/c1-26(2)22-13-7-19(8-14-22)25(20-9-15-23(16-10-20)27(3)4)21-11-17-24(18-12-21)28(5)6;/h7-18H,1-6H3;1H/q+1;/p-1",-2.008588463,CN(C)C1=CC=C(C=C1)[C+](C1=CC=C(C=C1)N(C)C)C1=CC=C(C=C1)N(C)C,0,G1,A,mono-constituent,Non Valid pH,Positive
A-832,"InChI=1S/C10H18O2/c1-2-3-4-6-9-7-5-8-10(11)12-9/h9H,2-8H2,1H3",-1.629032231,CCCCCC1CCCC(=O)O1,0,G1,A,mono-constituent,None,Uncharged
A-833,"InChI=1S/C6H7F3O3/c1-2-12-5(11)3-4(10)6(7,8)9/h2-3H2,1H3",-1.663024463,CCOC(=O)CC(=O)C(F)(F)F,0.150512232,G3,A,mono-constituent,None,Uncharged
A-834,InChI=1S/C4H8N2O7/c7-5(8)12-3-1-11-2-4-13-6(9)10/h1-4H2,-1.690450821,[O-][N+](=O)OCCOCCO[N+]([O-])=O,0.008867077,G5,A,mono-constituent,None,PureChargeSeparation
A-841,"InChI=1S/C12H12O2Si/c13-15(14,11-7-3-1-4-8-11)12-9-5-2-6-10-12/h1-10,13-14H",-2.733020622,O[Si](O)(C1=CC=CC=C1)C1=CC=CC=C1,0,G1,A,mono-constituent,None,Uncharged
A-842,"InChI=1S/C10H20O2/c1-3-5-7-9-12-10(11)8-6-4-2/h3-9H2,1-2H3",-3.624481304,CCCCCOC(=O)CCCC,0,G1,A,mono-constituent,None,Uncharged
A-843,"InChI=1S/C18H16N2O4/c1-11-6-15(21)19(17(11)23)9-13-4-3-5-14(8-13)10-20-16(22)7-12(2)18(20)24/h3-8H,9-10H2,1-2H3",-3.900334993,CC1=CC(=O)N(CC2=CC(CN3C(=O)C=C(C)C3=O)=CC=C2)C1=O,0,G1,A,mono-constituent,None,Uncharged
A-844,"InChI=1S/C2H2O4.Ni/c3-1(4)2(5)6;/h(H,3,4)(H,5,6);/q;+2/p-2",-3.556228502,[O-]C(=O)C([O-])=O,0.298698475,G3,A,mono-constituent,Non Valid pH,Negative
A-848,"InChI=1S/C13H16O2/c1-2-3-4-8-11-15-13(14)12-9-6-5-7-10-12/h3-7,9-10H,2,8,11H2,1H3/b4-3-",-3.704897417,CCC=CCCOC(=O)C1=CC=CC=C1,0,G1,A,mono-constituent,None,Uncharged
A-851,"InChI=1S/C10H11NO4/c1-14-9(12)6-3-4-7(8(11)5-6)10(13)15-2/h3-5H,11H2,1-2H3",-3.718503765,COC(=O)C1=CC=C(C(=O)OC)C(N)=C1,0,G1,A,mono-constituent,None,Uncharged
A-853,"InChI=1S/C13H29N/c1-3-10-13(4-2)11-8-6-5-7-9-12-14/h13H,3-12,14H2,1-2H3",-3.697625957,CCCC(CC)CCCCCCC[NH3+],0,G1,A,None,None,Positive
A-855,"InChI=1S/C12H22O4/c13-11(14)9-7-5-3-1-2-4-6-8-10-12(15)16/h1-10H2,(H,13,14)(H,15,16)",-3.76024149,[O-]C(=O)CCCCCCCCCCC([O-])=O,0.633248127,G4,A,mono-constituent,Non Valid pH,Negative
A-857,"InChI=1S/C15H24O/c1-12(2)7-6-11-15(16-11)13(3,4)10-5-8-14(12,15)9-10/h10-11H,5-9H2,1-4H3",-4.6529288,CC1(C)C2CCC3(C2)C11OC1CCC3(C)C,0,G1,A,mono-constituent,None,Uncharged
A-861,"InChI=1S/C15H32OS/c1-14(16)13-17-12-10-8-6-5-7-9-11-15(2,3)4/h14,16H,5-13H2,1-4H3",-4.730940692,CC(O)CSCCCCCCCCC(C)(C)C,0,G1,A,UVCB,None,Uncharged
A-862,"InChI=1S/C12H24O2/c1-2-3-4-5-6-7-8-9-10-11-12(13)14/h2-11H2,1H3,(H,13,14)",-4.619583571,CCCCCCCCCCCC([O-])=O,0.529291786,G2,A,mono-constituent,None,Negative
A-863,"InChI=1S/C22H23ClN6O/c1-2-3-8-20-24-21(23)19(14-30)29(20)13-15-9-11-16(12-10-15)17-6-4-5-7-18(17)22-25-27-28-26-22/h4-7,9-12,30H,2-3,8,13-14H2,1H3,(H,25,26,27,28)",-4.945016986,CCCCC1=NC(Cl)=C(CO)N1CC1=CC=C(C=C1)C1=CC=CC=C1C1=NN=N[N-]1,0,G1,A,mono-constituent,None,Negative
A-864,InChI=1S/2Lu.3O/q2*+3;3*-2,-4.918566536,[Lu+3],0,G1,A,None,None,Uncharged
A-865,"InChI=1S/C10H20O2S/c1-3-5-6-9(4-2)7-12-10(11)8-13/h9,13H,3-8H2,1-2H3",-4.635481621,CCCCC(CC)COC(=O)CS,0,G1,A,mono-constituent,None,Uncharged
A-867,"InChI=1S/C11H16/c1-4-11(2,3)10-8-6-5-7-9-10/h5-9H,4H2,1-3H3",-4.50074592,CCC(C)(C)C1=CC=CC=C1,0.17547296,G3,A,mono-constituent,None,Uncharged
A-868,"InChI=1S/C14H24O/c1-11-7-5-9-14(3,4)13(11)12(2)8-6-10-15/h7,10,12-13H,5-6,8-9H2,1-4H3",-4.653202091,CC(CCC=O)C1C(C)=CCCC1(C)C,0.44371487,G3,A,None,None,Uncharged
A-870,"InChI=1S/C10H16/c1-7-8-4-5-9(6-8)10(7,2)3/h8-9H,1,4-6H2,2-3H3",-4.471540428,CC1(C)C2CCC(C2)C1=C,0.019754271,G3,A,mono-constituent,None,Uncharged
A-871,"InChI=1S/C15H24O/c1-11-6-8-13(9-7-11)12(2)10-14-4-3-5-15(14)16/h6,12-14H,3-5,7-10H2,1-2H3",-4.680367049,CC(CC1CCCC1=O)C1CCC(C)=CC1,0,G1,A,multi-constituent,None,Uncharged
A-874,"InChI=1S/C11H22O2/c1-3-4-5-6-7-8-9-10-11(12)13-2/h3-10H2,1-2H3",-4.626748523,CCCCCCCCCC(=O)OC,0.197001436,G5,A,mono-constituent,None,Uncharged
A-875,"InChI=1S/3CH2O3.2Pr/c3*2-1(3)4;;/h3*(H2,2,3,4);;/q;;;2*+3/p-6",-5.022027024,OC([O-])=O,0.257679861,G3,A,mono-constituent,None,Negative
A-876,"InChI=1S/C17H36N2O/c1-5-9-13-18(14-10-6-2)17(20)19(15-11-7-3)16-12-8-4/h5-16H2,1-4H3",-4.820595497,CCCCN(CCCC)C(=O)N(CCCC)CCCC,0,G1,A,mono-constituent,None,Uncharged
A-877,"InChI=1S/C16H28O/c1-11-6-7-12-14(2,3)13-10-16(11,12)9-8-15(13,4)17-5/h11-13H,6-10H2,1-5H3/t11-,12+,13-,15-,16?/m1/s1",-4.74017718,COC1(C)CCC23CC1C(C)(C)C2CCC3C,0,G1,A,mono-constituent,None,Uncharged
A-883,"InChI=1S/C13H26O/c1-14-13-11-9-7-5-3-2-4-6-8-10-12-13/h13H,2-12H2,1H3",-4.683590383,COC1CCCCCCCCCCC1,0,G1,A,mono-constituent,None,Uncharged
A-884,"InChI=1S/C15H26O/c1-6-16-15(5)10-8-12-11(2)13(15)7-9-14(12,3)4/h12-13H,2,6-10H2,1,3-5H3",-4.734296245,CCOC1(C)CCC2C(=C)C1CCC2(C)C,0,G1,A,multi-constituent,None,Uncharged
A-885,"InChI=1S/C10H20N2S4/c1-5-11(6-2)9(13)15-16-10(14)12(7-3)8-4/h5-8H2,1-4H3",-4.860377549,CCN(CC)C(=S)SSC(=S)N(CC)CC,0.930188775,G2,A,mono-constituent,None,Uncharged
A-886,"InChI=1S/C20H16N2O2/c1-11-6-9-17(12(2)10-11)22-19(23)14-5-3-4-13-16(21)8-7-15(18(13)14)20(22)24/h3-10H,21H2,1-2H3",-4.891655533,CC1=CC=C(N2C(=O)C3=CC=CC4=C(N)C=CC(C2=O)=C34)C(C)=C1,0,G1,A,mono-constituent,None,Uncharged
A-887,"InChI=1S/C14H19N/c1-10-8-12(14(3,4)5)9-11(2)13(10)6-7-15/h8-9H,6H2,1-5H3",-4.70181183,CC1=CC(=CC(C)=C1CC#N)C(C)(C)C,0,G1,A,mono-constituent,None,Uncharged
A-888,"InChI=1S/C53H58O6P2/c1-49(2,39-21-13-9-14-22-39)43-29-31-47(45(33-43)51(5,6)41-25-17-11-18-26-41)58-60-54-35-53(36-55-60)37-56-61(57-38-53)59-48-32-30-44(50(3,4)40-23-15-10-16-24-40)34-46(48)52(7,8)42-27-19-12-20-28-42/h9-34H,35-38H2,1-8H3/t53?,60-,61-",-7.231973426,CC(C)(C1=CC=CC=C1)C1=CC=C(OP2OCC3(CO2)COP(OC2=CC=C(C=C2C(C)(C)C2=CC=CC=C2)C(C)(C)C2=CC=CC=C2)OC3)C(=C1)C(C)(C)C1=CC=CC=C1,0,G1,A,mono-constituent,Below LoD Below LoQ,Uncharged
A-889,"InChI=1S/C12H7NO2/c14-11-8-5-1-3-7-4-2-6-9(10(7)8)12(15)13-11/h1-6H,(H,13,14,15)",-4.692831503,O=C1NC(=O)C2=C3C(C=CC=C13)=CC=C2,0,G1,A,mono-constituent,None,Uncharged
A-890,"InChI=1S/2C4H9.O.Sn/c2*1-3-4-2;;/h2*1,3-4H2,2H3;;",-4.794038183,CCCC[Sn](=O)CCCC,0.097759905,G3,A,mono-constituent,None,Uncharged
A-891,"InChI=1S/2C8H16O2.2C4H9.Sn/c2*1-3-5-6-7(4-2)8(9)10;2*1-3-4-2;/h2*7H,3-6H2,1-2H3,(H,9,10);2*1,3-4H2,2H3;/q;;;;+2/p-2",-5.113404326,CCCC[Sn++]CCCC.CCCCC(CC)C([O-])=O.CCCCC(CC)C([O-])=O,1.272034022,G2,A,None,Cosolvent Buffer,Negative
A-893,"InChI=1S/C9H14O2/c10-9-6-5-7-3-1-2-4-8(7)11-9/h7-8H,1-6H2",-0.586560326,O=C1CCC2CCCCC2O1,0,G1,A,multi-constituent,None,Uncharged
A-895,"InChI=1S/C9H10O2/c1-7-3-5-8(6-4-7)9(10)11-2/h3-6H,1-2H3",-2.576720352,COC(=O)C1=CC=C(C)C=C1,0.02243331,G5,A,mono-constituent,None,Uncharged
A-896,"InChI=1S/C14H20O2/c1-11-10-14(2,3)16-13(15-11)9-12-7-5-4-6-8-12/h4-8,11,13H,9-10H2,1-3H3",-2.744685443,CC1CC(C)(C)OC(CC2=CC=CC=C2)O1,0,G1,A,mono-constituent,None,Uncharged
A-898,"InChI=1S/C6H8N2/c7-5-3-1-2-4-6(5)8/h1-4H,7-8H2",-0.439609879,NC1=CC=CC=C1N,0.051633285,G5,A,mono-constituent,None,Uncharged
A-901,"InChI=1S/C7H5NO3S/c9-7-5-3-1-2-4-6(5)12(10,11)8-7/h1-4H,(H,8,9)",-1.671832414,O=C1[N-]S(=O)(=O)C2=CC=CC=C12,0.059541371,G5,A,mono-constituent,None,Negative
A-904,"InChI=1S/C7H9NO3S.Na/c1-5-4-6(12(9,10)11)2-3-7(5)8;/h2-4H,8H2,1H3,(H,9,10,11);/q;+1/p-1",-1.729501225,CC1=CC(=CC=C1N)S([O-])(=O)=O,0,G1,A,mono-constituent,None,Negative
A-906,"InChI=1S/C10H19N/c1-9(2)5-4-6-10(3)7-8-11/h9-10H,4-7H2,1-3H3",-3.587759138,CC(C)CCCC(C)CC#N,0,G1,A,None,Non Valid pH,Uncharged
A-907,InChI=1S/Ca.Mo.4O/q+2;;;;2*-1,-3.703694345,[O-][Mo]([O-])(=O)=O,0.165920358,G3,A,mono-constituent,None,Negative
A-908,"InChI=1S/C20H24N2O4/c23-17-10-3-1-5-12-21(17)19(25)15-8-7-9-16(14-15)20(26)22-13-6-2-4-11-18(22)24/h7-9,14H,1-6,10-13H2",-3.958346195,O=C(N1CCCCCC1=O)C1=CC(=CC=C1)C(=O)N1CCCCCC1=O,0,G1,A,mono-constituent,None,Uncharged
A-909,"InChI=1S/C13H22O/c1-11(2)7-5-8-12(3)9-6-10-13(4)14/h7,9H,5-6,8,10H2,1-4H3/b12-9+",-3.697448425,CC(C)=CCCC(C)=CCCC(C)=O,0.321643949,G3,A,multi-constituent,None,Uncharged
A-914,"InChI=1S/C9H16O2/c1-3-5-6-7-9(10)11-8-4-2/h4H,2-3,5-8H2,1H3",-2.610551759,CCCCCC(=O)OCC=C,0.15546314,G5,A,mono-constituent,None,Uncharged
A-916,"InChI=1S/C6H5N3O5.Na/c7-4-1-3(8(11)12)2-5(6(4)10)9(13)14;/h1-2,10H,7H2;/q;+1/p-1",-1.764813003,NC1=CC(=CC(=C1[O-])[N+]([O-])=O)[N+]([O-])=O,0,G1,A,mono-constituent,None,Negative
A-917,"InChI=1S/C10H10ClFO/c11-7-1-2-10(13)8-3-5-9(12)6-4-8/h3-6H,1-2,7H2",-2.722633923,FC1=CC=C(C=C1)C(=O)CCCCl,0,G1,A,mono-constituent,Unstable,Uncharged
A-922,"InChI=1S/C12H24O2Si/c1-8-12(13)14-15(9(2)3,10(4)5)11(6)7/h8-11H,1H2,2-7H3",-4.943737963,CC(C)[Si](OC(=O)C=C)(C(C)C)C(C)C,0,G1,A,mono-constituent,Unstable,Uncharged
A-924,"InChI=1S/C10H18O4/c1-7(2)13-9(11)5-6-10(12)14-8(3)4/h7-8H,5-6H2,1-4H3",-1.729316846,CC(C)OC(=O)CCC(=O)OC(C)C,0,G1,A,mono-constituent,None,Uncharged
A-926,"InChI=1S/C18H14N2O6S.Sr/c1-10-6-7-14(15(8-10)27(24,25)26)19-20-16-12-5-3-2-4-11(12)9-13(17(16)21)18(22)23;/h2-9,19H,1H3,(H,22,23)(H,24,25,26);/q;+2/p-2/b20-16-;",-4.105730153,CC1=CC=C(N=NC2=C(O)C(=CC3=CC=CC=C23)C([O-])=O)C(=C1)S([O-])(=O)=O,0,G1,A,mono-constituent,None,Negative
A-927,"InChI=1S/C19H20N4O.ClH/c1-23(2,3)16-10-4-13-5-11-18(24)19(17(13)12-16)22-21-15-8-6-14(20)7-9-15;/h4-12H,1-3H3,(H2-,20,21,22,24);1H",-1.980785388,C[N+](C)(C)C1=CC=C2C=CC(=O)C(=NNC3=CC=C(N)C=C3)C2=C1,0,G1,A,mono-constituent,None,Positive
A-929,"InChI=1S/C2H2F3NO/c3-2(4,5)1(6)7/h(H2,6,7)",-1.485022741,NC(=O)C(F)(F)F,0,G1,A,mono-constituent,None,Uncharged
A-930,"InChI=1S/C11H20O/c1-4-11(2,3)9-5-7-10(12)8-6-9/h9H,4-8H2,1-3H3",-2.656892778,CCC(C)(C)C1CCC(=O)CC1,0,G1,A,mono-constituent,None,Uncharged
A-932,"InChI=1S/C8H9NO4S/c1-6-3-4-7(14(2,12)13)5-8(6)9(10)11/h3-5H,1-2H3",-2.764701082,CC1=CC=C(C=C1[N+]([O-])=O)S(C)(=O)=O,0,G1,A,mono-constituent,Non Valid pH,PureChargeSeparation
A-935,"InChI=1S/C10H16O2/c1-3-4-5-6-7-8-9-10(11)12-2/h3-7H2,1-2H3",-3.651887666,CCCCCCC#CC(=O)OC,0,G1,A,mono-constituent,None,Uncharged
A-936,"InChI=1S/C10H22O/c1-2-3-4-5-6-7-8-9-10-11/h11H,2-10H2,1H3",-3.631238037,CCCCCCCCCCO,0.406681305,G5,A,UVCB,Multi-constituent Substances,Uncharged
A-939,"InChI=1S/C18H15OP/c19-20(16-10-4-1-5-11-16,17-12-6-2-7-13-17)18-14-8-3-9-15-18/h1-15H",-2.877472795,O=P(C1=CC=CC=C1)(C1=CC=CC=C1)C1=CC=CC=C1,0,G1,A,mono-constituent,None,Uncharged
A-940,"InChI=1S/C8H9ClO2/c1-10-6-3-4-8(11-2)7(9)5-6/h3-5H,1-2H3",-2.672402404,COC1=CC=C(OC)C(Cl)=C1,0,G1,A,mono-constituent,None,Uncharged
A-944,"InChI=1S/C12H12O2/c13-7-8-14-12-6-5-10-3-1-2-4-11(10)9-12/h1-6,9,13H,7-8H2",-2.71429469,OCCOC1=CC2=CC=CC=C2C=C1,0,G1,A,mono-constituent,None,Uncharged
A-950,"InChI=1S/C10H14O/c1-2-3-9-11-10-7-5-4-6-8-10/h4-8H,2-3,9H2,1H3",-3.613249563,CCCCOC1=CC=CC=C1,0,G1,A,mono-constituent,None,Uncharged
A-951,"InChI=1S/C18H18O5/c19-17(15-7-3-1-4-8-15)22-13-11-21-12-14-23-18(20)16-9-5-2-6-10-16/h1-10H,11-14H2",-3.937488879,O=C(OCCOCCOC(=O)C1=CC=CC=C1)C1=CC=CC=C1,0.018444614,G5,A,mono-constituent,None,Uncharged
A-953,"InChI=1S/C21H44N2/c1-2-3-4-5-6-7-8-9-10-11-12-13-14-15-16-17-20-23-21-18-19-22/h9-10,23H,2-8,11-22H2,1H3/b10-9-",-3.955042001,CCCCCCCCC=CCCCCCCCC[NH2+]CCC[NH3+],0,G1,A,mono-constituent,None,Positive
A-954,InChI=1S/C6H3Cl3/c7-4-1-2-5(8)6(9)3-4/h1-3H,-3.702452078,ClC1=CC=C(Cl)C(Cl)=C1,0.124041556,G5,A,mono-constituent,None,Uncharged
A-959,"InChI=1S/C9H10F3NO2/c1-6-7(4-14)13-3-2-8(6)15-5-9(10,11)12/h2-3,14H,4-5H2,1H3",-1.792073711,CC1=C(OCC(F)(F)F)C=CN=C1CO,0,G1,A,None,Non Valid pH,Uncharged
A-960,InChI=1S/C2H6O/c1-3-2/h1-2H3,0.88436592,COC,0.444404931,G3,A,mono-constituent,None,Uncharged
A-961,"InChI=1S/C12H14O5/c1-15-9-6-8(4-5-11(13)14)7-10(16-2)12(9)17-3/h4-7H,1-3H3,(H,13,14)/b5-4+",-2.830470194,COC1=CC(C=CC([O-])=O)=CC(OC)=C1OC,0,G1,A,mono-constituent,None,Negative
A-962,"InChI=1S/Ba.2HO2P/c;2*1-3-2/h;2*(H,1,2)/q+2;;/p-2",0.123663372,[O-]P=O,0,G1,A,None,None,Negative
A-967,InChI=1S/C4H8Br2/c5-3-1-2-4-6/h1-4H2,-2.790216782,BrCCCCBr,0,G1,A,mono-constituent,None,Uncharged