ID,InChI,Solubility,SMILEScurated,SD,Group,Dataset,Composition,Error,Charge
A-5243,"InChI=1S/C3H4O2.Na/c1-2-3(4)5;/h2H,1H2,(H,4,5);/q;+1/p-1",0.715084111,[O-]C(=O)C=C,0.328594316,G5,A,None,None,Negative
A-5244,"InChI=1S/C5H14NO.H2O/c1-6(2,3)4-5-7;/h7H,4-5H2,1-3H3;1H2/q+1;/p-1",0.603205321,C[N+](C)(C)CCO,0,G1,A,None,None,Positive
A-5245,"InChI=1S/C32H23N5O9S3.K.Na/c38-30-15-9-20-4-1-2-7-28(20)32(30)36-34-23-13-11-22(12-14-23)33-35-24-5-3-6-26(17-24)47(39,40)37-25-10-8-21-16-27(48(41,42)43)19-31(29(21)18-25)49(44,45)46;;/h1-19,37-38H,(H,41,42,43)(H,44,45,46);;/q;2*+1/p-2",-1.209646244,[O-]S(=O)(=O)C1=CC(=C2C=C(NS(=O)(=O)C3=CC(=CC=C3)N=NC3=CC=C(NN=C4C(=O)C=CC5=CC=CC=C45)C=C3)C=CC2=C1)S([O-])(=O)=O,0,G1,A,None,None,Negative
A-5246,"InChI=1S/C9H22N2/c1-8(4-5-10)6-9(2,3)7-11/h8H,4-7,10-11H2,1-3H3",0.478156217,CC(CC[NH3+])CC(C)(C)C[NH3+],0,G1,A,None,None,Positive
A-5247,"InChI=1S/C8H18O4S.Na/c1-2-3-4-5-6-7-8-12-13(9,10)11;/h2-8H2,1H3,(H,9,10,11);/q;+1/p-1",0.287206306,CCCCCCCCOS([O-])(=O)=O,0,G1,A,None,None,Negative
A-5248,"InChI=1S/C28H35N3.C2H4O2/c1-7-29-25-13-10-22(16-19(25)4)28(23-11-14-26(30-8-2)20(5)17-23)24-12-15-27(31-9-3)21(6)18-24;1-2(3)4/h10-18,29-30H,7-9H2,1-6H3;1H3,(H,3,4)",-1.023221287,CCNC1=CC=C(C=C1C)C(C1=CC=C(NCC)C(C)=C1)=C1C=CC(=[NH+]CC)C(C)=C1,0,G1,A,None,Cosolvent Buffer,Positive
A-5249,"InChI=1S/C18H38N2O.CH4O4S/c1-5-6-7-8-9-10-11-12-13-15-18(21)19-16-14-17-20(2,3)4;1-5-6(2,3)4/h5-17H2,1-4H3;1H3,(H,2,3,4)",-0.011381165,CCCCCCCCCCCC(=O)NCCC[N+](C)(C)C,0,G1,A,None,Cosolvent Buffer,Positive
A-5251,"InChI=1S/C12H26O4S.Na/c1-3-5-7-8-10-12(9-6-4-2)11-16-17(13,14)15;/h12H,3-11H2,1-2H3,(H,13,14,15);/q;+1/p-1",0.142087324,CCCCCCC(CCCC)COS([O-])(=O)=O,0,G1,A,None,None,Negative
A-5253,"InChI=1S/C34H29ClN12O19S6.5Na/c35-31-41-33(43-34(42-31)40-25-14-22(36)29(70(57,58)59)15-26(25)46-44-17-1-4-19(5-2-17)67(49,50)8-7-66-72(63,64)65)38-18-3-6-23(24(11-18)39-32(37)48)45-47-27-13-21-16(10-30(27)71(60,61)62)9-20(68(51,52)53)12-28(21)69(54,55)56;;;;;/h1-6,9-15H,7-8,36H2,(H3,37,39,48)(H,51,52,53)(H,54,55,56)(H,57,58,59)(H,60,61,62)(H,63,64,65)(H2,38,40,41,42,43);;;;;/q;5*+1/p-5",-0.510557544,NC(=O)NC1=CC(NC2=NC(Cl)=NC(NC3=CC(N)=C(C=C3N=NC3=CC=C(C=C3)S(=O)(=O)CCOS([O-])(=O)=O)S([O-])(=O)=O)=N2)=CC=C1N=NC1=CC2=C(C=C(C=C2C=C1S([O-])(=O)=O)S([O-])(=O)=O)S([O-])(=O)=O,0,G1,A,None,None,Negative
A-5254,"InChI=1S/C45H32N10O21S6.6Na/c56-43-33-13-5-27(17-23(33)19-39(81(71,72)73)41(43)54-52-35-15-7-29(21-37(35)79(65,66)67)50-48-25-1-9-31(10-2-25)77(59,60)61)46-45(58)47-28-6-14-34-24(18-28)20-40(82(74,75)76)42(44(34)57)55-53-36-16-8-30(22-38(36)80(68,69)70)51-49-26-3-11-32(12-4-26)78(62,63)64;;;;;;/h1-22,52-53H,(H2,46,47,58)(H,59,60,61)(H,62,63,64)(H,65,66,67)(H,68,69,70)(H,71,72,73)(H,74,75,76);;;;;;/q;6*+1/p-6/b50-48?,51-49?,54-41-,55-42-;;;;;;",-0.569498545,[O-]S(=O)(=O)C1=CC=C(C=C1)N=NC1=CC=C(NN=C2C(=O)C3=CC=C(NC(=O)NC4=CC=C5C(=C4)C=C(C(=NNC4=CC=C(C=C4S([O-])(=O)=O)N=NC4=CC=C(C=C4)S([O-])(=O)=O)C5=O)S([O-])(=O)=O)C=C3C=C2S([O-])(=O)=O)C(=C1)S([O-])(=O)=O,0,G1,A,None,None,Negative
A-5255,"InChI=1S/C12H26O4S.Li/c1-2-3-4-5-6-7-8-9-10-11-12-16-17(13,14)15;/h2-12H2,1H3,(H,13,14,15);/q;+1/p-1",0.10896299,CCCCCCCCCCCCOS([O-])(=O)=O,0,G1,A,None,None,Negative
A-5256,"InChI=1S/C10H22O4S.Na/c1-2-3-4-5-6-7-8-9-10-14-15(11,12)13;/h2-10H2,1H3,(H,11,12,13);/q;+1/p-1",0.102988053,CCCCCCCCCCOS([O-])(=O)=O,0,G1,A,None,None,Negative
A-5257,"InChI=1S/C10H16N2O8.Fe.K/c13-7(14)3-11(4-8(15)16)1-2-12(5-9(17)18)6-10(19)20;;/h1-6H2,(H,13,14)(H,15,16)(H,17,18)(H,19,20);;/q;+3;+1/p-4",-0.092012803,[O-]C(=O)CN(CCN(CC([O-])=O)CC([O-])=O)CC([O-])=O,0,G1,A,None,None,Negative
A-5258,"InChI=1S/C21H39NO3.C6H15NO3/c1-3-4-5-6-7-8-9-10-11-12-13-14-15-16-17-18-20(23)22(2)19-21(24)25;8-4-1-7(2-5-9)3-6-10/h10-11H,3-9,12-19H2,1-2H3,(H,24,25);8-10H,1-6H2/b11-10-;",0.775780405,CCCCCCCCC=CCCCCCCCC(=O)N(C)CC([O-])=O,0,G1,A,None,Cosolvent Buffer,Negative
A-5260,"InChI=1S/C2H4O3/c3-1-2(4)5/h3H,1H2,(H,4,5)",0.596016326,OCC([O-])=O,0,G1,A,None,Ionization,Negative
A-5261,"InChI=1S/C4H11N5.ClH/c1-9(2)4(7)8-3(5)6;/h1-2H3,(H5,5,6,7,8);1H",0.257987497,CN(C)C(N)=[NH+]C(N)=[NH2+],0,G1,A,None,None,Positive
A-5262,InChI=1S/C6H6N4/c7-1-4-10(5-2-8)6-3-9/h4-6H2,-1.647557834,N#CCN(CC#N)CC#N,0,G1,A,None,None,Uncharged
A-5263,"InChI=1S/C21H39NO3.K/c1-3-4-5-6-7-8-9-10-11-12-13-14-15-16-17-18-20(23)22(2)19-21(24)25;/h10-11H,3-9,12-19H2,1-2H3,(H,24,25);/q;+1/p-1/b11-10-;",-0.121592004,CCCCCCCCC=CCCCCCCCC(=O)N(C)CC([O-])=O,0,G1,A,None,None,Negative
A-5264,"InChI=1S/C5H10O2/c1-4(2)7-5(3)6/h4H,1-3H3",-0.546768091,CC(C)OC(C)=O,0.033934358,G5,A,None,None,Uncharged
A-5265,"InChI=1S/C8H12O4/c1-6(4-11-7(2)9)5-12-8(3)10/h1,4-5H2,2-3H3",-0.77961667,CC(=O)OCC(=C)COC(C)=O,0,G1,A,None,None,Uncharged
A-5266,"InChI=1S/C14H15O2PS2/c1-11-7-3-5-9-13(11)15-17(18,19)16-14-10-6-4-8-12(14)2/h3-10H,1-2H3,(H,18,19)",-1.060529965,CC1=CC=CC=C1OP([S-])(=S)OC1=CC=CC=C1C,0,G1,A,None,None,Negative
A-5267,"InChI=1S/C16H33NO2/c1-3-6-15(7-4-2)8-5-9-16-14-19-13-11-17(16)10-12-18/h15-16,18H,3-14H2,1-2H3",0.964258162,CCCC(CCC)CCCC1COCC[NH+]1CCO,0,G1,A,None,None,Positive
A-5268,"InChI=1S/C3H9NO3S.Na/c1-4-2-3-8(5,6)7;/h4H,2-3H2,1H3,(H,5,6,7);/q;+1/p-1",0.19068814,C[NH2+]CCS([O-])(=O)=O,1.484516662,G4,A,None,None,Zwitterion
A-5270,InChI=1S/Al.7ClH.Ti/h;7*1H;/q+3;;;;;;;;+4/p-7,-0.111289404,[Al+3].[Cl-].[Cl-].[Cl-].[Cl-].[Cl-].[Cl-].[Cl-].[Ti+4],0,G1,A,None,None,Negative
A-5273,"InChI=1S/C22H18N2O11S3.2Na/c23-20-17(37(29,30)31)11-16(18-19(20)22(26)15-7-2-1-6-14(15)21(18)25)24-12-4-3-5-13(10-12)36(27,28)9-8-35-38(32,33)34;;/h1-7,10-11,24H,8-9,23H2,(H,29,30,31)(H,32,33,34);;/q;2*+1/p-2",-0.454535826,NC1=C2C(=O)C3=CC=CC=C3C(=O)C2=C(NC2=CC=CC(=C2)S(=O)(=O)CCOS([O-])(=O)=O)C=C1S([O-])(=O)=O,0,G1,A,None,None,Negative
A-5274,"InChI=1S/C6H10O4/c7-3-1-9-6-4(8)2-10-5(3)6/h3-8H,1-2H2/t3-,4+,5-,6-/m1/s1",1.177450183,OC1COC2C(O)COC12,0,G1,A,None,None,Uncharged
A-5276,"InChI=1S/C8H12N2/c9-5-7-1-2-8(6-10)4-3-7/h1-4H,5-6,9-10H2",1.175071806,[NH3+]CC1=CC=C(C[NH3+])C=C1,0,G1,A,None,None,Positive
A-5277,"InChI=1S/C8H14O4/c1-9-5-3-11-8-6(10-2)4-12-7(5)8/h5-8H,3-4H2,1-2H3",1.059991817,COC1COC2C(COC12)OC,0,G1,A,None,None,Uncharged
A-5278,"InChI=1S/C18H11NO8S2.2Na/c20-17-11-3-1-2-4-12(11)18(21)15(17)13-6-5-9-7-10(28(22,23)24)8-14(16(9)19-13)29(25,26)27;;/h1-8,15H,(H,22,23,24)(H,25,26,27);;/q;2*+1/p-2",-0.377836954,[O-]S(=O)(=O)C1=CC2=CC=C([NH+]=C2C(=C1)S([O-])(=O)=O)[C-]1C(=O)C2=CC=CC=C2C1=O,0,G1,A,None,None,Zwitterion
A-5279,"InChI=1S/C12H15NO6S.H3N/c1-7-4-9(13-12(15)5-8(2)14)10(19-3)6-11(7)20(16,17)18;/h4,6H,5H2,1-3H3,(H,13,15)(H,16,17,18);1H3",-0.201876223,COC1=CC(=C(C)C=C1NC(=O)CC(C)=O)S([O-])(=O)=O,0,G1,A,None,None,Negative
A-5280,"InChI=1S/C40H28N10O19S4.4Na/c51-33-19-34(52)31(18-30(33)45-43-23-5-1-21(2-6-23)41-28-11-9-25(49(54)55)15-35(28)71(61,62)63)46-47-32-17-27(70(58,59)60)13-20-14-37(73(67,68)69)39(40(53)38(20)32)48-44-24-7-3-22(4-8-24)42-29-12-10-26(50(56)57)16-36(29)72(64,65)66;;;;/h1-19,41-42,51-53H,(H,58,59,60)(H,61,62,63)(H,64,65,66)(H,67,68,69);;;;/q;4*+1/p-4",-0.76675145,[O-]C1=CC(=O)C(=CC1=NNC1=CC(=CC2=C1C(=O)C(=NNC1=CC=C(NC3=CC=C(C=C3S([O-])(=O)=O)[N+]([O-])=O)C=C1)C(=C2)S([O-])(=O)=O)S([O-])(=O)=O)N=NC1=CC=C(NC2=CC=C(C=C2S([O-])(=O)=O)[N+]([O-])=O)C=C1,0,G1,A,None,None,Negative
A-5281,"InChI=1S/C32H23N5O6S2.2Na/c38-44(39,40)23-11-6-10-22(20-23)34-35-27-16-17-28(25-13-5-4-12-24(25)27)36-37-29-18-19-30(33-21-8-2-1-3-9-21)32-26(29)14-7-15-31(32)45(41,42)43;;/h1-20,33H,(H,38,39,40)(H,41,42,43);;/q;2*+1/p-2",-0.532539726,[O-]S(=O)(=O)C1=CC=CC(=C1)N=NC1=CC=C(N=NC2=CC=C(NC3=CC=CC=C3)C3=C(C=CC=C23)S([O-])(=O)=O)C2=CC=CC=C12,0,G1,A,None,None,Negative
A-5282,"InChI=1S/C18H41N3/c1-2-3-4-5-6-7-8-9-10-11-16-21(17-12-14-19)18-13-15-20/h2-20H2,1H3",-0.197711374,CCCCCCCCCCCCN(CCC[NH3+])CCC[NH3+],0,G1,A,None,None,Positive
A-5283,"InChI=1S/C29H21N9O10S2.3C6H15NO3/c1-48-23-12-19(37-36-18-7-4-16-10-20(49(42,43)44)13-24(21(16)11-18)50(45,46)47)8-9-22(23)32-26(39)15-2-5-17(6-3-15)35-38-25-27(40)33-29(31-14-30)34-28(25)41;3*8-4-1-7(2-5-9)3-6-10/h2-13H,1H3,(H,32,39)(H,42,43,44)(H,45,46,47)(H3,31,33,34,40,41);3*8-10H,1-6H2",-0.821648982,OCC[NH+](CCO)CCO.OCC[NH+](CCO)CCO.OCC[NH+](CCO)CCO.COC1=CC(=CC=C1NC(=O)C1=CC=C([N-]N=C2C(=O)NC(NC2=O)=NC#N)C=C1)N=NC1=CC2=C(C=C(C=C2C=C1)S([O-])(=O)=O)S([O-])(=O)=O,0.038353313,G3,A,None,Cosolvent Buffer,Zwitterion
A-5284,"InChI=1S/C24H46O7S.Na/c1-20(2)15-11-7-5-9-13-17-30-23(25)19-22(32(27,28)29)24(26)31-18-14-10-6-8-12-16-21(3)4;/h20-22H,5-19H2,1-4H3,(H,27,28,29);/q;+1/p-1",-0.469106118,CC(C)CCCCCCCOC(=O)CC(C(=O)OCCCCCCCC(C)C)S([O-])(=O)=O,0,G1,A,None,None,Negative
A-5285,"InChI=1S/C8H18N6.ClH/c1-7(2,5(9)10)13-14-8(3,4)6(11)12;/h1-4H3,(H3,9,10)(H3,11,12);1H",-0.145139333,CC(C)(N=NC(C)(C)C(N)=[NH2+])C(N)=[NH2+],0.010283694,G3,A,None,None,Positive
A-5290,"InChI=1S/C20H20OP.ClH/c1-21-17-22(18-11-5-2-6-12-18,19-13-7-3-8-14-19)20-15-9-4-10-16-20;/h2-16H,17H2,1H3;1H/q+1;/p-1",0.506344271,COC[P+](C1=CC=CC=C1)(C1=CC=CC=C1)C1=CC=CC=C1,0,G1,A,None,None,Positive
A-5291,InChI=1S/Au.4ClH.H3N/h;4*1H;1H3/q+3;;;;;/p-3,0.48894593,[NH4+].[Cl-].[Cl-].[Cl-].[Cl-].[Au+3],0.016711878,G3,A,None,None,Zwitterion
A-5293,"InChI=1S/Ca.H3O3P/c;1-4(2)3/h;4H,(H2,1,2,3)/q+2;/p-2",0.948776933,OP([O-])=O,0,G1,A,None,None,Negative
A-5295,"InChI=1S/2C2H4O2.4H3N.Pd/c2*1-2(3)4;;;;;/h2*1H3,(H,3,4);4*1H3;/q;;;;;;+2/p-2",0.541425963,CC([O-])=O,0,G1,A,None,None,Negative
A-5299,"InChI=1S/C5H10O3/c1-5(2-6,3-7)4-8/h2,7-8H,3-4H2,1H3",0.928933376,CC(CO)(CO)C=O,0,G1,A,None,None,Uncharged
A-5300,"InChI=1S/2C6H18N4/c7-1-4-10(5-2-8)6-3-9;7-1-3-9-5-6-10-4-2-8/h1-9H2;9-10H,1-8H2",0.533909766,[NH3+]CCNCCNCC[NH3+],0,G1,A,None,Multi-constituent Substances,Positive
A-5301,"InChI=1S/2C8H23N5/c9-1-4-12-5-8-13(6-2-10)7-3-11;9-1-3-11-5-7-13-8-6-12-4-2-10/h12H,1-11H2;11-13H,1-10H2",0.421803331,[NH3+]CCNCC[NH2+]CCNCC[NH3+],0,G1,A,None,Multi-constituent Substances,Positive
A-5303,"InChI=1S/C5H14N2/c1-7(2)5-3-4-6/h3-6H2,1-2H3",0.990629851,C[NH+](C)CCC[NH3+],0,G1,A,None,None,Positive
A-5304,"InChI=1S/C8H17N3.ClH/c1-4-11(8-9)7-5-6-10(2)3;/h4-7H2,1-3H3;1H",0.717364294,CCN(CCC[NH+](C)C)C#N,0,G1,A,None,None,Positive
A-5305,"InChI=1S/C7H14O3/c1-2-7(3-8)4-9-6-10-5-7/h8H,2-6H2,1H3",0.835094217,CCC1(CO)COCOC1,0,G1,A,None,None,Uncharged
A-5307,"InChI=1S/C12H24O2/c1-12(2,3)10-8-6-4-5-7-9-11(13)14/h4-10H2,1-3H3,(H,13,14)",-2.111396949,CC(C)(C)CCCCCCCC([O-])=O,0.285422057,G3,A,None,None,Negative
A-5308,"InChI=1S/C6H12N2O/c1-7-4-3-5-8(2)6(7)9/h3-5H2,1-2H3",0.892196674,CN1CCCN(C)C1=O,0,G1,A,None,None,Uncharged
A-5310,"InChI=1S/C7H14N2O/c10-6-7-5-8-1-3-9(7)4-2-8/h7,10H,1-6H2",0.847094295,OCC1C[NH+]2CCN1CC2,0,G1,A,None,None,Positive
A-5311,"InChI=1S/C6H14N2/c1-7-3-5-8(2)6-4-7/h3-6H2,1-2H3",0.942364321,CN1CC[NH+](C)CC1,0,G1,A,None,None,Positive
A-5312,"InChI=1S/C7H16O3/c1-3-9-6-7-10-5-4-8-2/h3-7H2,1-2H3",0.829145935,CCOCCOCCOC,0,G1,A,None,None,Uncharged
A-5313,"InChI=1S/C6H11NO/c1-2-7-5-3-4-6(7)8/h2-5H2,1H3",0.946307061,CCN1CCCC1=O,0,G1,A,None,None,Uncharged
A-5314,"InChI=1S/C6H10O3/c1-2-6(8)9-5-3-4-7/h2,7H,1,3-5H2",0.885579186,OCCCOC(=O)C=C,0,G1,A,None,None,Uncharged
A-5315,"InChI=1S/C4H6N2/c1-6-3-2-5-4-6/h2-4H,1H3",1.085625105,CN1C=CN=C1,0,G1,A,None,None,Uncharged
A-5316,"InChI=1S/C13H31N3O/c1-13(17)12-16(10-6-8-14(2)3)11-7-9-15(4)5/h13,17H,6-12H2,1-5H3",0.610105975,CC(O)C[NH+](CCC[NH+](C)C)CCC[NH+](C)C,0,G1,A,None,None,Positive
A-5317,InChI=1S/C4H12N2O/c5-1-3-7-4-2-6/h1-6H2,0.982328216,[NH3+]CCOCC[NH3+],0,G1,A,None,None,Positive
A-5318,"InChI=1S/C10H22O5/c1-11-3-5-13-7-9-15-10-8-14-6-4-12-2/h3-10H2,1-2H3",0.653097658,COCCOCCOCCOCCOC,0,G1,A,None,None,Uncharged
A-5319,"InChI=1S/C8H18O4/c1-9-3-5-11-7-8-12-6-4-10-2/h3-8H2,1-2H3",0.749024066,COCCOCCOCCOC,0,G1,A,None,None,Uncharged
A-5320,"InChI=1S/C6H13NO/c1-5-3-7-4-6(2)8-5/h5-7H,3-4H2,1-2H3",0.938638008,CC1C[NH2+]CC(C)O1,0,G1,A,None,None,Positive
A-5323,"InChI=1S/C2H7NO.C2H4O2S/c3-1-2-4;3-2(4)1-5/h4H,1-3H2;5H,1H2,(H,3,4)",0.81473273,[O-]C(=O)CS,0,G1,A,None,Cosolvent Buffer,Negative
A-5324,"InChI=1S/C6H10O4/c1-4(6(9)10)2-3-5(7)8/h4H,2-3H2,1H3,(H,7,8)(H,9,10)",0.835224953,CC(CCC([O-])=O)C([O-])=O,0,G1,A,None,None,Negative
A-5325,"InChI=1S/C4H4O5/c5-2(4(8)9)1-3(6)7/h1H2,(H,6,7)(H,8,9)",0.879192534,OC(=CC([O-])=O)C([O-])=O,0,G1,A,None,None,Negative
A-5326,"InChI=1S/C6H14O5/c7-1-5(9)3-11-4-6(10)2-8/h5-10H,1-4H2",0.77943954,OCC(O)COCC(O)CO,0,G1,A,None,None,Uncharged
A-5327,"InChI=1S/C11H15ClN2O.ClH/c1-8-9(5-6-12)11(15)14-7-3-2-4-10(14)13-8;/h2-7H2,1H3;1H",0.57976692,CC1=C(CCCl)C(=O)N2CCCCC2=N1,0,G1,A,None,None,Uncharged
A-5328,"InChI=1S/C11H16N8O8/c20-2-18-4(6(22)16-10(18)26)14-8(24)12-1-13-9(25)15-5-7(23)17-11(27)19(5)3-21/h4-5,20-21H,1-3H2,(H2,12,14,24)(H2,13,15,25)(H,16,22,26)(H,17,23,27)",0.410835965,OCN1C(NC(=O)NCNC(=O)NC2N(CO)C(=O)NC2=O)C(=O)NC1=O,0,G1,A,None,None,Uncharged
A-5329,"InChI=1S/C3H9NO2/c4-1-3(6)2-5/h3,5-6H,1-2,4H2",1.040433953,[NH3+]CC(O)CO,0,G1,A,None,None,Positive
A-5331,"InChI=1S/C4H6N2/c1-4-2-3-5-6-4/h2-3H,1H3,(H,5,6)",1.085625105,CC1=CC=NN1,0,G1,A,None,None,Uncharged
A-5332,"InChI=1S/C4H7NO2/c1-3(6)2-4(5)7/h2H2,1H3,(H2,5,7)",0.995227367,CC(=O)CC(N)=O,0,G1,A,None,None,Uncharged
A-5333,"InChI=1S/C4H6O4/c5-1-3-2-7-4(6)8-3/h3,5H,1-2H2",0.927794233,OCC1COC(=O)O1,0,G1,A,None,None,Uncharged
A-5334,"InChI=1S/C6H11NO2/c1-6(8)7-2-4-9-5-3-7/h2-5H2,1H3",0.888875326,CC(=O)N1CCOCC1,0,G1,A,None,None,Uncharged
A-5335,"InChI=1S/C9H20O6/c10-1-4-13-7-9(15-6-3-12)8-14-5-2-11/h9-12H,1-8H2",0.649261738,OCCOCC(COCCO)OCCO,0,G1,A,None,None,Uncharged
A-5336,"InChI=1S/C4H12N.ClH/c1-5(2,3)4;/h1-4H3;1H/q+1;/p-1",0.960189446,C[N+](C)(C)C,0,G1,A,None,None,Positive
A-5337,"InChI=1S/C6H11NO2/c1-5(8)4-6(9)7(2)3/h4H2,1-3H3",0.888875326,CN(C)C(=O)CC(C)=O,0,G1,A,None,None,Uncharged
A-5338,"InChI=1S/C6H14N2O/c1-8(2)5-3-4-7-6-9/h6H,3-5H2,1-2H3,(H,7,9)",0.885419037,C[NH+](C)CCCNC=O,0,G1,A,None,None,Positive
A-5340,"InChI=1S/C2H5NO/c1-3-2-4/h2H,1H3,(H,3,4)",1.228647734,CNC=O,0,G1,A,None,None,Uncharged
A-5342,"InChI=1S/C2H4O2S.H3N/c3-2(4)1-5;/h5H,1H2,(H,3,4);1H3",0.96197626,[O-]C(=O)CS,0,G1,A,None,None,Negative
A-5344,"InChI=1S/C12H22O4.2C6H15NO3/c13-11(14)9-7-5-3-1-2-4-6-8-10-12(15)16;2*8-4-1-7(2-5-9)3-6-10/h1-10H2,(H,13,14)(H,15,16);2*8-10H,1-6H2",0.276803833,[O-]C(=O)CCCCCCCCCCC([O-])=O,0,G1,A,None,Cosolvent Buffer,Negative
A-5345,"InChI=1S/C7H19N3/c1-10(6-2-4-8)7-3-5-9/h2-9H2,1H3",0.837883859,C[NH+](CCC[NH3+])CCC[NH3+],0,G1,A,None,None,Positive
A-5346,InChI=1S/ClH.Cs/h1H;/q;+1/p-1,0.773766242,[Cs+],0,G1,A,None,None,Positive
A-5347,InChI=1S/Cs.H2O/h;1H2/q+1;/p-1,0.824163602,[Cs+],0,G1,A,None,None,Positive
A-5348,"InChI=1S/2C6H11BO8.Ca/c2*8-1-2-5(15-7(13)14-2)3(9)4(10)6(11)12;/h2*2-5,8-10,13H,1H2,(H,11,12);/q;;+2/p-2",0.316972785,OCC1OB(O)OC1C(O)C(O)C([O-])=O,0,G1,A,None,None,Negative
A-5349,"InChI=1S/2C2H7NO.CH2O3/c2*3-1-2-4;2-1(3)4/h2*4H,1-3H2;(H2,2,3,4)",0.734729236,[NH3+]CCO,0,G1,A,None,Cosolvent Buffer,Positive
A-5350,"InChI=1S/2Cs.H2O4S/c;;1-5(2,3)4/h;;(H2,1,2,3,4)/q2*+1;/p-2",0.441443819,[O-]S([O-])(=O)=O,0,G1,A,None,None,Negative
A-5351,"InChI=1S/C6H10O4.K/c7-5(8)3-1-2-4-6(9)10;/h1-4H2,(H,7,8)(H,9,10);/q;+1",0.732265228,[O-]C(=O)CCCCC([O-])=O,0,G1,A,None,None,Negative
A-5352,"InChI=1S/C31H27N5O6S2.2Na/c1-2-36(21-22-7-5-9-26(19-22)43(37,38)39)25-15-13-23(14-16-25)32-34-30-17-18-31(29-12-4-3-11-28(29)30)35-33-24-8-6-10-27(20-24)44(40,41)42;;/h3-20H,2,21H2,1H3,(H,37,38,39)(H,40,41,42);;/q;2*+1/p-2",0.171543767,CCN(CC1=CC=CC(=C1)S([O-])(=O)=O)C1=CC=C(C=C1)N=NC1=CC=C(N=NC2=CC=CC(=C2)S([O-])(=O)=O)C2=CC=CC=C12,0,G1,A,None,None,Negative
A-5353,"InChI=1S/C16H14N4O7S2.2Na/c17-9-2-4-12(14(6-9)29(25,26)27)19-20-16-11(18)3-1-8-5-10(28(22,23)24)7-13(21)15(8)16;;/h1-7,18-20H,17H2,(H,22,23,24)(H,25,26,27);;/q;2*+1/p-2",0.316586399,NC1=CC=C(NN=C2C(=N)C=CC3=CC(=CC(O)=C23)S([O-])(=O)=O)C(=C1)S([O-])(=O)=O,0,G1,A,None,None,Negative
A-5354,"InChI=1S/C10H18O6/c1-9(11)15-7-5-13-3-4-14-6-8-16-10(2)12/h3-8H2,1-2H3",0.630324108,CC(=O)OCCOCCOCCOC(C)=O,0,G1,A,None,None,Uncharged
A-5355,"InChI=1S/C8H13NO3/c1-2-12-8(11)9-5-3-7(10)4-6-9/h2-6H2,1H3",0.766506387,CCOC(=O)N1CCC(=O)CC1,0,G1,A,None,None,Uncharged
A-5356,"InChI=1S/C5H13N/c1-3-5-6-4-2/h6H,3-5H2,1-2H3/p+1",1.054659457,CCC[NH2+]CC,0,G1,A,None,None,Positive
A-5357,InChI=1S/3ClH.In/h3*1H;/q;;;+3/p-3,0.655260037,[Cl-].[Cl-].[Cl-].[In+3],0,G1,A,None,None,Negative
A-5359,"InChI=1S/C21H27N7O14P2/c22-17-12-19(25-7-24-17)28(8-26-12)21-16(32)14(30)11(41-21)6-39-44(36,37)42-43(34,35)38-5-10-13(29)15(31)20(40-10)27-3-1-2-9(4-27)18(23)33/h1-4,7-8,10-11,13-16,20-21,29-32H,5-6H2,(H5-,22,23,24,25,33,34,35,36,37)",0.178204894,NC(=O)C1=CC=C[N+](=C1)C1OC(COP([O-])(=O)OP([O-])(=O)OCC2OC(C(O)C2O)N2C=NC3=C(N)N=CN=C23)C(O)C1O,0,G1,A,None,None,Zwitterion
A-5361,InChI=1S/C6H10O2/c7-6-4-2-1-3-5-8-6/h1-5H2,0.942546912,O=C1CCCCCO1,0,G1,A,None,None,Uncharged
A-5362,InChI=1S/C4H6O2/c5-4-2-1-3-6-4/h1-3H2,1.065047292,O=C1CCCO1,0,G1,A,None,None,Uncharged
A-5363,"InChI=1S/C5H11N/c1-2-4-6-5-3-1/h6H,1-5H2",1.069815348,C1CC[NH2+]CC1,0,G1,A,None,None,Positive
A-5364,InChI=1S/CHNS.K/c2-1-3;/h3H;/q;+1/p-1,1.012409699,[S-]C#N,0,G1,A,None,None,Negative
A-5365,"InChI=1S/C14H15O4P.K/c15-19(16,17-11-13-7-3-1-4-8-13)18-12-14-9-5-2-6-10-14;/h1-10H,11-12H2,(H,15,16);/q;+1/p-1",0.499854127,[O-]P(=O)(OCC1=CC=CC=C1)OCC1=CC=CC=C1,0,G1,A,None,None,Negative
A-5367,"InChI=1S/C3H4O/c1-2-3-4/h1,4H,3H2",1.25131592,OCC#C,0,G1,A,None,None,Uncharged
A-5368,"InChI=1S/C3H8O2/c4-2-1-3-5/h4-5H,1-3H2",1.118643879,OCCCO,0,G1,A,None,None,Uncharged
A-5370,"InChI=1S/C6H7NO/c8-5-6-2-1-3-7-4-6/h1-4,8H,5H2",0.962063804,OCC1=CC=CN=C1,0,G1,A,None,None,Uncharged
A-5371,"InChI=1S/C8H16O2.Na/c1-3-5-6-7(4-2)8(9)10;/h7H,3-6H2,1-2H3,(H,9,10);/q;+1/p-1",0.779379433,CCCCC(CC)C([O-])=O,0,G1,A,None,None,Negative
A-5372,"InChI=1S/C28H30N2O8S.Na/c1-15-13-16(2)28(39(33,34)35)17(3)25(15)30-20-14-21(38-12-11-37-10-9-36-4)24(29)23-22(20)26(31)18-7-5-6-8-19(18)27(23)32;/h5-8,13-14,30H,9-12,29H2,1-4H3,(H,33,34,35);/q;+1/p-1",0.239123102,COCCOCCOC1=CC(NC2=C(C)C=C(C)C(=C2C)S([O-])(=O)=O)=C2C(=O)C3=CC=CC=C3C(=O)C2=C1N,0,G1,A,None,None,Negative
A-5373,"InChI=1S/C9H10O3.Na/c1-2-12-9(11)7-3-5-8(10)6-4-7;/h3-6,10H,2H2,1H3;/q;+1/p-1",0.725477312,CCOC(=O)C1=CC=C(O)C=C1,0,G1,A,None,None,Uncharged
A-5374,"InChI=1S/C4H11O2PS2.Na/c1-3-5-7(8,9)6-4-2;/h3-4H2,1-2H3,(H,8,9);/q;+1/p-1",0.681477558,CCOP([S-])(=S)OCC,0,G1,A,None,None,Negative
A-5375,"InChI=1S/C8H19O2PS2.Na/c1-7(2)5-9-11(12,13)10-6-8(3)4;/h7-8H,5-6H2,1-4H3,(H,12,13);/q;+1/p-1",0.57785683,CC(C)COP([S-])(=S)OCC(C)C,0,G1,A,None,None,Negative
A-5376,InChI=1S/CHNS.Na/c2-1-3;/h3H;/q;+1/p-1,1.091113043,[S-]C#N,0,G1,A,None,None,Negative
A-5379,"InChI=1S/C8H18O/c1-7(2)6-9-8(3,4)5/h7H,6H2,1-5H3",0.885285625,CC(C)COC(C)(C)C,0,G1,A,None,None,Uncharged
A-5380,"InChI=1S/C8H6O4.C4H12N/c9-7(10)5-3-1-2-4-6(5)8(11)12;1-5(2,3)4/h1-4H,(H,9,10)(H,11,12);1-4H3/q;+1/p-1",0.621109935,[O-]C(=O)C1=CC=CC=C1C([O-])=O,0,G1,A,None,Cosolvent Buffer,Negative
A-5381,"InChI=1S/C4H12N.H2O/c1-5(2,3)4;/h1-4H3;1H2/q+1;/p-1",1.040224269,C[N+](C)(C)C,0,G1,A,None,None,Positive
A-5382,"InChI=1S/C23H21N5O12S2.3Na/c1-13-9-19(27-24-14-3-6-20(29)16(10-14)23(30)31)21(40-7-2-8-41(34,35)36)12-18(13)26-25-17-5-4-15(28(32)33)11-22(17)42(37,38)39;;;/h3-6,9-12,27H,2,7-8H2,1H3,(H,30,31)(H,34,35,36)(H,37,38,39);;;/q;3*+1/p-3/b24-14+,26-25?;;;",0.161450613,CC1=CC(N=NC2=CC=C(O)C(=C2)C([O-])=O)=C(OCCCS([O-])(=O)=O)C=C1N=NC1=CC=C(C=C1S([O-])(=O)=O)[N+]([O-])=O,0,G1,A,None,None,Negative
A-5383,"InChI=1S/2H3O4P.Zn/c2*1-5(2,3)4;/h2*(H3,1,2,3,4);/q;;+2/p-6",0.592898155,OP([O-])([O-])=O,0,G1,A,None,None,Negative
A-5385,"InChI=1S/C9H19NO/c1-8(2)5-7(11)6-9(3,4)10-8/h7,10-11H,5-6H2,1-4H3",-0.196609986,CC1(C)CC(O)CC(C)(C)[NH2+]1,0,G1,A,None,None,Positive
A-5386,"InChI=1S/C6H15N3/c7-1-4-9-5-2-8-3-6-9/h8H,1-7H2",-0.111286043,[NH3+]CCN1CC[NH2+]CC1,0,G1,A,None,None,Positive
A-5387,"InChI=1S/C5H12O2/c1-5(2)7-4-3-6/h5-6H,3-4H2,1-2H3",-0.017655104,CC(C)OCCO,0.499977552,G3,A,None,None,Uncharged
A-5388,"InChI=1S/C5H12N2O2/c6-5(9)1-2-7-3-4-8/h7-8H,1-4H2,(H2,6,9)",-0.121109888,NC(=O)CC[NH2+]CCO,0,G1,A,None,None,Positive