ID,InChI,Solubility,SMILEScurated,SD,Group,Dataset,Composition,Error,Charge
A-3342,"InChI=1S/C29H28Cl2N4O7S.Na/c1-13-18(11-33-22(36)9-30)14(2)27(15(3)19(13)12-34-23(37)10-31)35-20-8-21(43(40,41)42)26(32)25-24(20)28(38)16-6-4-5-7-17(16)29(25)39;/h4-8,35H,9-12,32H2,1-3H3,(H,33,36)(H,34,37)(H,40,41,42);/q;+1/p-1",-1.017551933,CC1=C(CNC(=O)CCl)C(C)=C(NC2=CC(=C(N)C3=C2C(=O)C2=CC=CC=C2C3=O)S([O-])(=O)=O)C(C)=C1CNC(=O)CCl,0,G1,A,None,None,Negative
A-3344,"InChI=1S/C5H10O/c1-5(2)3-4-6/h3,6H,4H2,1-2H3",-0.128994642,CC(C)=CCO,0,G1,A,None,Non Valid pH,Uncharged
A-3345,"InChI=1S/Ca.2H3NO3S/c;2*1-5(2,3)4/h;2*(H3,1,2,3,4)/q+2;;/p-2",0.438861216,NS([O-])(=O)=O,0,G1,A,None,None,Negative
A-3346,InChI=1S/C6H16N2/c7-5-3-1-2-4-6-8/h1-8H2,0.738903406,[NH3+]CCCCCC[NH3+],0.098048297,G3,A,None,None,Positive
A-3347,"InChI=1S/CH4O3S.Na/c2-1-5(3)4;/h2H,1H2,(H,3,4);/q;+1/p-1",0.731520726,OCS([O-])=O,0.098134915,G3,A,None,None,Negative
A-3348,"InChI=1S/C3H4N2/c1-2-5-3-4-1/h1-3H,(H,4,5)",0.968390542,N1C=CN=C1,0.010054909,G3,A,None,None,Uncharged
A-3349,"InChI=1S/C4H7NO4.Na/c5-2(4(8)9)1-3(6)7;/h2H,1,5H2,(H,6,7)(H,8,9);/q;+1/p-1/t2-;/m0./s1",0.609927332,[NH3+]C(CC([O-])=O)C([O-])=O,0,G1,A,None,None,Zwitterion
A-3352,"InChI=1S/Mn.2H3O4P/c;2*1-5(2,3)4/h;2*(H3,1,2,3,4)/q+2;;/p-6",0.41039078,OP([O-])([O-])=O,0,G1,A,None,None,Negative
A-3353,"InChI=1S/C5H12O2/c1-4-5(2,3)7-6/h6H,4H2,1-3H3",-0.216594575,CCC(C)(C)OO,0,G1,A,None,Non Valid pH,Uncharged
A-3354,"InChI=1S/C8H11N/c9-7-6-8-4-2-1-3-5-8/h1-5H,6-7,9H2",-0.28238117,[NH3+]CCC1=CC=CC=C1,0,G1,A,None,None,Positive
A-3357,"InChI=1S/C9H18NO2/c1-8(2)5-7(11)6-9(3,4)10(8)12/h7,11H,5-6H2,1-4H3",0.562703544,CC1(C)CC(O)CC(C)(C)N1[O],0,G1,A,None,None,Uncharged
A-3358,"InChI=1S/C7H6N3.Na/c1-5-3-2-4-6-7(5)9-10-8-6;/h2-4H,1H3;/q-1;+1",0.605167428,CC1=C2N=NNC2=CC=C1,0,G1,A,None,Ionization,Uncharged
A-3360,InChI=1S/C4H4O3/c5-3-1-2-4(6)7-3/h1-2H2,-0.201666274,O=C1CCC(=O)O1,0,G1,A,None,Unstable,Uncharged
A-3364,"InChI=1S/2C3H6O2.Ca/c2*1-2-3(4)5;/h2*2H2,1H3,(H,4,5);/q;;+2/p-2",-0.476934722,CCC([O-])=O,0.333903121,G3,A,None,None,Negative
A-3365,"InChI=1S/C5H12O4/c6-1-5(2-7,3-8)4-9/h6-9H,1-4H2",-0.341616387,OCC(CO)(CO)CO,0.067813815,G5,A,None,None,Uncharged
A-3367,"InChI=1S/C8H14O3/c1-5(2)7(9)11-8(10)6(3)4/h5-6H,1-4H3",0.591790232,CC(C)C(=O)OC(=O)C(C)C,0,G1,A,None,None,Uncharged
A-3369,"InChI=1S/C5H7NO3.Na/c7-4-2-1-3(6-4)5(8)9;/h3H,1-2H2,(H,6,7)(H,8,9);/q;+1/p-1/t3-;/m0./s1",0.608204633,[O-]C(=O)C1CCC(=O)N1,0,G1,A,None,None,Negative
A-3370,"InChI=1S/C37H36N2O9S3.2Na/c1-3-38(25-27-9-7-11-33(23-27)49(40,41)42)31-19-15-29(16-20-31)37(35-13-5-6-14-36(35)51(46,47)48)30-17-21-32(22-18-30)39(4-2)26-28-10-8-12-34(24-28)50(43,44)45;;/h5-24H,3-4,25-26H2,1-2H3,(H2-,40,41,42,43,44,45,46,47,48);;/q;2*+1/p-2",-0.113158037,CCN(CC1=CC=CC(=C1)S([O-])(=O)=O)C1=CC=C(C=C1)[C+](C1=CC=C(C=C1)N(CC)CC1=CC=CC(=C1)S([O-])(=O)=O)C1=CC=CC=C1S([O-])(=O)=O,0,G1,A,None,None,Zwitterion
A-3371,"InChI=1S/2Na.HO3P/c;;1-4(2)3/h;;(H,1,2,3)/q2*+1;/p-1",0.689301474,[O-]P(=O)=O,0,G1,A,None,None,Negative
A-3372,"InChI=1S/C8H16O2/c1-7(2)5(9)8(3,4)6(7)10/h5-6,9-10H,1-4H3",-0.373677588,CC1(C)C(O)C(C)(C)C1O,0,G1,A,None,None,Uncharged
A-3373,"InChI=1S/C6H8O7.3K/c7-3(8)1-6(13,5(11)12)2-4(9)10;;;/h13H,1-2H2,(H,7,8)(H,9,10)(H,11,12);;;/q;3*+1/p-3",0.296193785,OC(CC([O-])=O)(CC([O-])=O)C([O-])=O,0.202524048,G3,A,None,None,Negative
A-3374,"InChI=1S/C28H38N2O8/c31-11-15-37-19-17-35-13-3-9-29-23-7-8-24(30-10-4-14-36-18-20-38-16-12-32)26-25(23)27(33)21-5-1-2-6-22(21)28(26)34/h1-2,5-8,29-32H,3-4,9-20H2",0.057188696,OCCOCCOCCCNC1=CC=C(NCCCOCCOCCO)C2=C1C(=O)C1=CC=CC=C1C2=O,0.109014663,G3,A,None,None,Uncharged
A-3375,"InChI=1S/C2H4O2/c1-2(3)4/h1H3,(H,3,4)",1.001717808,CC([O-])=O,0.109891096,G3,A,None,None,Negative
A-3376,"InChI=1S/C5H6O5/c6-3(5(9)10)1-2-4(7)8/h1-2H2,(H,7,8)(H,9,10)",0.614880073,[O-]C(=O)CCC(=O)C([O-])=O,0,G1,A,None,None,Negative
A-3377,"InChI=1S/C6H14O6S4.2Na/c7-15(8,9)5-1-3-13-14-4-2-6-16(10,11)12;;/h1-6H2,(H,7,8,9)(H,10,11,12);;/q;2*+1/p-2",0.228652636,[O-]S(=O)(=O)CCCSSCCCS([O-])(=O)=O,0,G1,A,None,None,Negative
A-3379,"InChI=1S/C4H6O/c1-4(2)3-5/h3H,1H2,2H3",-0.067511006,CC(=C)C=O,0.050771527,G5,A,None,None,Uncharged
A-3380,"InChI=1S/C4H8O/c1-4(2)3-5/h3-4H,1-2H3",-0.079826177,CC(C)C=O,0.085613088,G3,A,None,None,Uncharged
A-3381,"InChI=1S/C6H15O2PS2/c1-5(2)7-9(10,11)8-6(3)4/h5-6H,1-4H3,(H,10,11)",-0.552854708,CC(C)OP([S-])(=S)OC(C)C,0,G1,A,None,None,Negative
A-3385,"InChI=1S/C10H21NO/c1-7(2)10(5,8(3)4)9(12)11-6/h7-8H,1-6H3,(H,11,12)",-1.394867706,CNC(=O)C(C)(C(C)C)C(C)C,0,G1,A,None,None,Uncharged
A-3387,InChI=1S/CCl2O/c2-1(3)4,-1.160845842,ClC(Cl)=O,0,G1,A,None,None,Uncharged
A-3389,"InChI=1S/C10H16O4/c11-8(12)6-10(7-9(13)14)4-2-1-3-5-10/h1-7H2,(H,11,12)(H,13,14)",-1.47223405,[O-]C(=O)CC1(CC([O-])=O)CCCCC1,0.215687753,G5,A,None,None,Negative
A-3390,InChI=1S/Sr,-1.113943352,[Sr],0,G1,A,None,Non Valid pH,Uncharged
A-3391,"InChI=1S/C7H13N3O4/c8-3-6(12)10-4(7(13)14)1-2-5(9)11/h4H,1-3,8H2,(H2,9,11)(H,10,12)(H,13,14)/t4-/m0/s1",-0.194310278,NC(=O)CCC(NC(=O)C[NH3+])C([O-])=O,0,G1,A,None,None,Zwitterion
A-3392,"InChI=1S/C38H29Cl2N5O12S4.K.Li.Na/c1-38(2,3)19-6-10-21(11-7-19)59(48,49)45-20-8-4-18-15-22(9-5-17(18)14-20)58(46,47)26-16-25-33(37(29(26)42)61(53,54)55)57-35-27(39)30-34(28(40)31(35)44-25)56-32-24(43-30)13-12-23(41)36(32)60(50,51)52;;;/h4-16,45H,41-42H2,1-3H3,(H,50,51,52)(H,53,54,55);;;",-2.180765898,CC(C)(C)C1=CC=C(C=C1)S(=O)(=O)NC1=CC2=CC=C(C=C2C=C1)S(=O)(=O)C1=CC2=C(OC3=C(Cl)C4=NC5=C(OC4=C(Cl)C3=N2)C(=C(N)C=C5)S([O-])(=O)=O)C(=C1N)S([O-])(=O)=O,0,G1,A,None,None,Negative
A-3393,"InChI=1S/C3H8S/c1-3-4-2/h3H2,1-2H3",-1.056973282,CCSC,0,G1,A,None,Non Valid pH,Uncharged
A-3397,InChI=1S/C7H6O/c8-6-7-4-2-1-3-5-7/h1-6H,-1.209572311,O=CC1=CC=CC=C1,0.166263026,G5,A,None,None,Uncharged
A-3398,"InChI=1S/C8H18O6/c1-5-7(3,11-9)13-14-8(4,6-2)12-10/h9-10H,5-6H2,1-4H3",-1.507773246,CCC(C)(OO)OOC(C)(CC)OO,0,G1,A,None,Unstable,Uncharged
A-3399,"InChI=1S/C10H15NO/c1-8(11-2)10(12)9-6-4-3-5-7-9/h3-8,10-12H,1-2H3/t8-,10+/m0/s1",-1.405191317,C[NH2+]C(C)C(O)C1=CC=CC=C1,0,G1,A,None,Non Valid pH,Positive
A-3401,"InChI=1S/C6H12O2/c1-4-8-6(7)5(2)3/h5H,4H2,1-3H3",-1.255496889,CCOC(=O)C(C)C,0,G1,A,None,None,Uncharged
A-3402,InChI=1S/S.Sr,0.003660289,S=[Sr],0,G1,A,None,Non Valid pH,Uncharged
A-3403,InChI=1S/C8H4O3/c9-7-5-3-1-2-4-6(5)8(10)11-7/h1-4H,-1.364424933,O=C1OC(=O)C2=CC=CC=C12,0.18286241,G5,A,None,None,Uncharged
A-3404,InChI=1S/C2H2Cl2/c3-1-2-4/h1-2H/b2-1+,-1.187180386,ClC=CCl,0.127609807,G3,A,None,None,Uncharged
A-3407,InChI=1S/C9H7N/c1-2-6-9-8(4-1)5-3-7-10-9/h1-7H,-1.325093551,C1=CC2=CC=CN=C2C=C1,0.013436073,G3,A,None,None,Uncharged
A-3409,"InChI=1S/C9H12O.C8H8O.C6H6O/c1-9(2,10)8-6-4-3-5-7-8;1-7(9)8-5-3-2-4-6-8;7-6-4-2-1-3-5-6/h3-7,10H,1-2H3;2-6H,1H3;1-5,7H",-1.759306143,CC(C)(O)C1=CC=CC=C1,0,G1,A,None,Cosolvent Buffer,Uncharged
A-3410,"InChI=1S/C28H16N2O10S2.2Na/c29-23-17(41(35,36)37)9-15(19-21(23)27(33)13-7-3-1-5-11(13)25(19)31)16-10-18(42(38,39)40)24(30)22-20(16)26(32)12-6-2-4-8-14(12)28(22)34;;/h1-10H,29-30H2,(H,35,36,37)(H,38,39,40);;/q;2*+1/p-2",-2.030180053,NC1=C(C=C(C2=CC(=C(N)C3=C2C(=O)C2=CC=CC=C2C3=O)S([O-])(=O)=O)C2=C1C(=O)C1=CC=CC=C1C2=O)S([O-])(=O)=O,0,G1,A,None,None,Negative
A-3411,"InChI=1S/C7H15N/c1-2-8-6-4-3-5-7-8/h2-7H2,1H3",-1.275710522,CC[NH+]1CCCCC1,0,G1,A,None,None,Positive
A-3412,"InChI=1S/C7H9NO3S/c1-5-2-3-6(8)7(4-5)12(9,10)11/h2-4H,8H2,1H3,(H,9,10,11)",-1.494200991,CC1=CC=C(N)C(=C1)S([O-])(=O)=O,0.037899505,G3,A,None,None,Negative
A-3414,"InChI=1S/C10H6O8.2C9H10N2/c11-7(12)3-1-4(8(13)14)6(10(17)18)2-5(3)9(15)16;2*1-2-4-8(5-3-1)9-10-6-7-11-9/h1-2H,(H,11,12)(H,13,14)(H,15,16)(H,17,18);2*1-5H,6-7H2,(H,10,11)",-1.959467524,[O-]C(=O)C1=CC(C([O-])=O)=C(C=C1C([O-])=O)C([O-])=O,0,G1,A,None,Multi-constituent Substances,Negative
A-3416,"InChI=1S/C3H6N2O/c6-3-4-1-2-5-3/h1-2H2,(H2,4,5,6)",0.840273374,O=C1NCCN1,0.109458674,G5,A,None,None,Uncharged
A-3418,InChI=1S/2Fe.3O/q2*+3;3*-2,-3.726148307,O.O.O.[Fe+3].[Fe+3],0,G1,A,None,None,Uncharged
A-3420,"InChI=1S/2H4NO.H2O4S/c2*1-2;1-5(2,3)4/h2*2H,1H3;(H2,1,2,3,4)/q2*+1;/p-2",0.553426318,NO.NO.[O-]S([O-])(=O)=O,0,G1,A,None,Cosolvent Buffer,Negative
A-3421,InChI=1S/2ClH.Co/h2*1H;/q;;+2/p-2,0.654418336,[Cl-].[Cl-].[Co++],0,G1,A,None,None,Negative
A-3423,"InChI=1S/K.H3O4P/c;1-5(2,3)4/h;(H3,1,2,3,4)/q+1;",0.628656443,OP([O-])([O-])=O,0,G1,A,None,None,Negative
A-3430,"InChI=1S/C19H35NO5.K/c1-2-3-4-5-6-7-8-9-10-11-12-13-17(21)20-16(19(24)25)14-15-18(22)23;/h16H,2-15H2,1H3,(H,20,21)(H,22,23)(H,24,25);/q;+1/p-1/t16-;/m0./s1",-0.830822577,CCCCCCCCCCCCCC(=O)NC(CCC([O-])=O)C([O-])=O,0,G1,A,None,None,Negative
A-3432,"InChI=1S/C9H14O6/c1-6(10)13-4-9(15-8(3)12)5-14-7(2)11/h9H,4-5H2,1-3H3",-0.575436704,CC(=O)OCC(COC(C)=O)OC(C)=O,0.045410321,G5,A,None,None,Uncharged
A-3433,"InChI=1S/C4H8O/c1-4(2)3-5-4/h3H2,1-2H3",-0.094549434,CC1(C)CO1,0,G1,A,None,None,Uncharged
A-3434,"InChI=1S/C12H24O6/c1-2-3-4-5-6-17-12-11(16)10(15)9(14)8(7-13)18-12/h8-16H,2-7H2,1H3/t8-,9-,10+,11-,12?/m1/s1",-0.658698746,CCCCCCOC1OC(CO)C(O)C(O)C1O,0,G1,A,None,None,Uncharged
A-3435,"InChI=1S/C6H8O7/c7-3(8)1-6(13,5(11)12)2-4(9)10/h13H,1-2H2,(H,7,8)(H,9,10)(H,11,12)",0.476843124,OC(CC([O-])=O)(CC([O-])=O)C([O-])=O,0.081864505,G5,A,None,None,Negative
A-3437,"InChI=1S/C2H4N4/c3-2-4-1-5-6-2/h1H,(H3,3,4,5,6)",0.832692995,NC1=NN=CN1,0.291135428,G5,A,None,Cosolvent Buffer,Uncharged
A-3438,"InChI=1S/C9H15N3O6/c13-4-1-10-7(16)11(2-5-14)9(18)12(3-6-15)8(10)17/h13-15H,1-6H2",0.340366328,OCCN1C(=O)N(CCO)C(=O)N(CCO)C1=O,0.151650906,G3,A,None,None,Uncharged
A-3439,"InChI=1S/C6H8O7.Na/c7-3(8)1-6(13,5(11)12)2-4(9)10;/h13H,1-2H2,(H,7,8)(H,9,10)(H,11,12);/q;+1/p-1",0.425248046,OC(CC([O-])=O)(CC([O-])=O)C([O-])=O,0.312770544,G3,A,None,None,Negative
A-3441,"InChI=1S/C23H16BrN3O9S2.2Na/c1-10(24)23(30)26-11-6-7-14(16(8-11)37(31,32)33)27-15-9-17(38(34,35)36)20(25)19-18(15)21(28)12-4-2-3-5-13(12)22(19)29;;/h2-9,27H,1,25H2,(H,26,30)(H,31,32,33)(H,34,35,36);;/q;2*+1/p-2",-1.061803892,NC1=C(C=C(NC2=CC=C(NC(=O)C(Br)=C)C=C2S([O-])(=O)=O)C2=C1C(=O)C1=CC=CC=C1C2=O)S([O-])(=O)=O,0,G1,A,None,None,Negative
A-3442,"InChI=1S/C42H46N14O10S2.2Na/c43-35(59)17-19-55(21-23-57)41-51-37(45-29-7-3-1-4-8-29)49-39(53-41)47-31-15-13-27(33(25-31)67(61,62)63)11-12-28-14-16-32(26-34(28)68(64,65)66)48-40-50-38(46-30-9-5-2-6-10-30)52-42(54-40)56(22-24-58)20-18-36(44)60;;/h1-16,25-26,57-58H,17-24H2,(H2,43,59)(H2,44,60)(H,61,62,63)(H,64,65,66)(H2,45,47,49,51,53)(H2,46,48,50,52,54);;/q;2*+1/p-2/b12-11+;;",-1.247560996,NC(=O)CCN(CCO)C1=NC(NC2=CC=CC=C2)=NC(NC2=CC=C(C=CC3=CC=C(NC4=NC(NC5=CC=CC=C5)=NC(=N4)N(CCO)CCC(N)=O)C=C3S([O-])(=O)=O)C(=C2)S([O-])(=O)=O)=N1,0,G1,A,None,Non Valid pH,Negative
A-3444,"InChI=1S/C5H10O5/c6-2-1-10-5(9)4(8)3(2)7/h2-9H,1H2",0.577880851,OC1COC(O)C(O)C1O,0.140735267,G5,A,None,None,Uncharged
A-3445,"InChI=1S/C9H19NO4/c1-9(2,6-12)7(13)8(14)10-4-3-5-11/h7,11-13H,3-6H2,1-2H3,(H,10,14)",0.437676454,CC(C)(CO)C(O)C(=O)NCCCO,0,G1,A,None,None,Uncharged
A-3446,"InChI=1S/C4H6O6/c5-1(3(7)8)2(6)4(9)10/h1-2,5-6H,(H,7,8)(H,9,10)",0.571847844,OC(C(O)C([O-])=O)C([O-])=O,0.682832682,G4,A,None,None,Negative
A-3447,"InChI=1S/C17H44N3O15P5/c21-36(22,23)13-18(9-5-1-3-7-11-19(14-37(24,25)26)15-38(27,28)29)10-6-2-4-8-12-20(16-39(30,31)32)17-40(33,34)35/h1-17H2,(H2,21,22,23)(H2,24,25,26)(H2,27,28,29)(H2,30,31,32)(H2,33,34,35)",-0.087765578,[O-]P([O-])(=O)C[NH+](CCCCCC[NH+](CP([O-])([O-])=O)CP([O-])([O-])=O)CCCCCC[NH+](CP([O-])([O-])=O)CP([O-])([O-])=O,0,G1,A,None,None,Zwitterion
A-3448,"InChI=1S/C4H6O6.K/c5-1(3(7)8)2(6)4(9)10;/h1-2,5-6H,(H,7,8)(H,9,10);/q;+1/p-1/t1-,2-;/m1./s1",0.473623794,OC(C(O)C([O-])=O)C([O-])=O,0.753304129,G4,A,None,None,Negative
A-3452,"InChI=1S/C8H12O5/c1-5(9)6(8(11)13-3)4-7(10)12-2/h6H,4H2,1-3H3",-0.524834841,COC(=O)CC(C(C)=O)C(=O)OC,0,G1,A,None,None,Uncharged
A-3453,"InChI=1S/2CH2O3.4H3N.Pd/c2*2-1(3)4;;;;;/h2*(H2,2,3,4);4*1H3;/q;;;;;;+2/p-2",-0.722399688,OC([O-])=O,0,G1,A,None,None,Negative
A-3459,"InChI=1S/C10H18O4/c1(3-11-5-9-7-13-9)2-4-12-6-10-8-14-10/h9-10H,1-8H2",-0.560813739,C(CCOCC1CO1)COCC1CO1,0,G1,A,None,Unstable,Uncharged
A-3460,InChI=1S/2ClH.Pd/h2*1H;/q;;+2/p-2,-0.503697626,[Cl-].[Cl-].[Pd++],0.569884873,G2,A,None,None,Negative
A-3461,InChI=1S/Na.H2S/h;1H2/q+1;/p-1,0.990088732,[SH-],0,G1,A,None,None,Negative
A-3462,"InChI=1S/C3H7NO2/c4-2-1-3(5)6/h1-2,4H2,(H,5,6)",0.786548045,[NH3+]CCC([O-])=O,0,G1,A,None,None,Zwitterion
A-3463,"InChI=1S/C7H11N3O.2ClH/c1-9-7-5(8)3-4-6(10-7)11-2;;/h3-4H,8H2,1-2H3,(H,9,10);2*1H",0.381923091,CNC1=NC(OC)=CC=C1N,0,G1,A,None,None,Uncharged
A-3464,"InChI=1S/C6H15NO/c1-3-6(2)7-4-5-8/h6-8H,3-5H2,1-2H3",0.666700934,CCC(C)[NH2+]CCO,0,G1,A,None,None,Positive
A-3467,"InChI=1S/C6H8O7.C4H10N2/c7-3(8)1-6(13,5(11)12)2-4(9)10;1-2-6-4-3-5-1/h13H,1-2H2,(H,7,8)(H,9,10)(H,11,12);5-6H,1-4H2",0.287941418,OC(CC([O-])=O)(CC([O-])=O)C([O-])=O,0,G1,A,None,Cosolvent Buffer,Negative
A-3468,"InChI=1S/2Na.H2O5S2/c;;1-6(2)5-7(3)4/h;;(H,1,2)(H,3,4)/q2*+1;/p-2",0.453391082,[O-]S(=O)OS([O-])=O,0,G1,A,None,None,Negative
A-3469,"InChI=1S/C7H14N4O3/c1-8-7(10-11(12)13)9-4-6-2-3-14-5-6/h6H,2-5H2,1H3,(H2,8,9,10)",-0.569414718,CNC(NCC1CCOC1)=N[N+]([O-])=O,0.127203891,G5,A,None,None,PureChargeSeparation
A-3472,"InChI=1S/C7H14O3/c1-3-9-6-5-7(8)10-4-2/h3-6H2,1-2H3",-0.431708518,CCOCCC(=O)OCC,0.005554259,G3,A,None,None,Uncharged
A-3473,"InChI=1S/C7H15N/c1-8-7-5-3-2-4-6-7/h7-8H,2-6H2,1H3",-0.321468013,C[NH2+]C1CCCCC1,0,G1,A,None,None,Positive
A-3475,"InChI=1S/C4H5NO2/c1-7-4(6)2-3-5/h2H2,1H3",-0.263631686,COC(=O)CC#N,0.169191352,G3,A,None,None,Uncharged
A-3476,"InChI=1S/C2H6O4S.Na/c3-1-2-7(4,5)6;/h3H,1-2H2,(H,4,5,6);/q;+1/p-1",0.556942214,OCCS([O-])(=O)=O,0,G1,A,None,None,Negative
A-3477,"InChI=1S/C8HF17O3S.C8H20N/c9-1(10,3(13,14)5(17,18)7(21,22)23)2(11,12)4(15,16)6(19,20)8(24,25)29(26,27)28;1-5-9(6-2,7-3)8-4/h(H,26,27,28);5-8H2,1-4H3/q;+1/p-1",-0.072180899,[O-]S(=O)(=O)C(F)(F)C(F)(F)C(F)(F)C(F)(F)C(F)(F)C(F)(F)C(F)(F)C(F)(F)F,0,G1,A,None,Cosolvent Buffer,Negative
A-3480,"InChI=1S/C22H40O7S.2Na/c1-2-3-4-5-6-7-8-9-10-11-12-13-14-15-16-17-18-29-22(25)20(19-21(23)24)30(26,27)28;;/h9-10,20H,2-8,11-19H2,1H3,(H,23,24)(H,26,27,28);;/q;2*+1/p-2/b10-9+;;",-0.962426912,CCCCCCCCC=CCCCCCCCCOC(=O)C(CC([O-])=O)S([O-])(=O)=O,0,G1,A,None,None,Negative
A-3481,"InChI=1S/C5H7NO2/c1-2-8-5(7)3-4-6/h2-3H2,1H3",-0.327612407,CCOC(=O)CC#N,0.209495588,G5,A,None,None,Uncharged
A-3482,"InChI=1S/C20H22N4O12S3.2Na/c1-12-19(20(25)24(23-12)13-4-6-14(7-5-13)38(28,29)30)22-21-15-10-17(35-3)18(11-16(15)34-2)37(26,27)9-8-36-39(31,32)33;;/h4-7,10-11,19H,8-9H2,1-3H3,(H,28,29,30)(H,31,32,33);;/q;2*+1/p-2",-0.089843034,COC1=CC(=C(OC)C=C1N=NC1C(C)=NN(C1=O)C1=CC=C(C=C1)S([O-])(=O)=O)S(=O)(=O)CCOS([O-])(=O)=O,0,G1,A,None,None,Negative
A-3483,"InChI=1S/C6H8O7.2Na/c7-3(8)1-6(13,5(11)12)2-4(9)10;;/h13H,1-2H2,(H,7,8)(H,9,10)(H,11,12);;/q;2*+1/p-2",0.345413007,OC(CC([O-])=O)(CC([O-])=O)C([O-])=O,0,G1,A,None,None,Negative
A-3487,"InChI=1S/C6H8N2/c1-6(5-8)3-2-4-7/h6H,2-3H2,1H3",-0.31550074,CC(CCC#N)C#N,0,G1,A,None,None,Uncharged
A-3488,"InChI=1S/C7H16O2/c1-3-4-5-9-6-7(2)8/h7-8H,3-6H2,1-2H3",-0.405237967,CCCCOCC(C)O,0,G1,A,None,None,Uncharged
A-3490,InChI=1S/C3H2O3/c4-3-5-1-2-6-3/h1-2H,0.777076543,O=C1OC=CO1,0,G1,A,None,None,Uncharged
A-3492,"InChI=1S/C5H10OS2.Na/c1-3-4(2)6-5(7)8;/h4H,3H2,1-2H3,(H,7,8);/q;+1",0.468876879,CCC(C)OC([S-])=S,0,G1,A,None,None,Negative
A-3495,"InChI=1S/C8H12N2O.H2O4S/c1-5(11)7-4-6(9)2-3-8(7)10;1-5(2,3)4/h2-5,11H,9-10H2,1H3;(H2,1,2,3,4)/p-2",-0.68563679,CC(O)C1=CC(N)=CC=C1N,0,G1,A,None,Cosolvent Buffer,Uncharged
A-3496,"InChI=1S/C5H4N2O/c1-4-5(2-6)8-3-7-4/h3H,1H3",-0.324555733,CC1=C(OC=N1)C#N,0,G1,A,None,None,Uncharged
A-3497,"InChI=1S/Cd.2HNO3/c;2*2-1(3)4/h;2*(H,2,3,4)/q+2;;",0.327636132,[O-][N+]([O-])=O,0,G1,A,None,None,Negative
A-3498,"InChI=1S/C3H6OS2.Na/c1-2-4-3(5)6;/h2H2,1H3,(H,5,6);/q;+1/p-1",0.544338165,CCOC([S-])=S,0.006355983,G3,A,None,None,Negative
A-3500,InChI=1S/C8H20N2.2ClH/c9-7-5-3-1-2-4-6-8-10;;/h1-10H2;2*1H,0.362142177,[NH3+]CCCCCCCC[NH3+],0.03034892,G3,A,None,Non Valid pH,Positive
A-3501,"InChI=1S/C14H26N2O/c1-14(2,3)16-13(17)12-8-10-6-4-5-7-11(10)9-15-12/h10-12,15H,4-9H2,1-3H3,(H,16,17)/p+1/t10-,11-,12-/m0/s1",-2.161609361,CC(C)(C)NC(=O)C1CC2CCCCC2C[NH2+]1,0,G1,A,None,None,Positive
A-3502,"InChI=1S/C6H14O2/c7-5-3-1-2-4-6-8/h7-8H,1-6H2",1.626440718,OCCCCCCO,0,G1,A,None,None,Uncharged
A-3503,"InChI=1S/C8H15NO2/c1-7(2)8(10)11-6-5-9(3)4/h1,5-6H2,2-4H3",0.502481549,C[NH+](C)CCOC(=O)C(C)=C,0.150514998,G3,A,None,None,Positive
A-3504,"InChI=1S/C4H6O6.2Na/c5-1(3(7)8)2(6)4(9)10;;/h1-2,5-6H,(H,7,8)(H,9,10);;/q;2*+1/p-2",0.411056357,OC(C(O)C([O-])=O)C([O-])=O,0,G1,A,None,None,Negative
A-3505,"InChI=1S/C6H15O4P/c1-4-8-11(7,9-5-2)10-6-3/h4-6H2,1-3H3",0.438526523,CCOP(=O)(OCC)OCC,0,G1,A,None,None,Uncharged
A-3506,"InChI=1S/C5H7NO3/c7-4-2-1-3(6-4)5(8)9/h3H,1-2H2,(H,6,7)(H,8,9)",-0.404258917,[O-]C(=O)C1CCC(=O)N1,0.485629459,G3,A,None,Non Valid pH,Negative
A-3508,"InChI=1S/C4H8O/c1-2-3-4-5/h4H,2-3H2,1H3",-0.159007423,CCCC=O,0.076153711,G3,A,None,None,Uncharged
A-3512,InChI=1S/C4H8S/c1-2-4-5-3-1/h1-4H2,-1.181917475,C1CCSC1,0,G1,A,None,None,Uncharged
A-3514,"InChI=1S/C8H8O2/c1-7(9)10-8-5-3-2-4-6-8/h2-6H,1H3",-1.373595162,CC(=O)OC1=CC=CC=C1,0,G1,A,None,Non Valid pH,Uncharged
A-3515,"InChI=1S/C2H5Cl/c1-2-3/h2H2,1H3",-1.050748809,CCCl,0,G1,A,None,None,Uncharged
A-3516,InChI=1S/C4H2Cl2N2/c5-3-1-4(6)8-2-7-3/h1-2H,-1.417253114,ClC1=CC(Cl)=NC=N1,0,G1,A,None,Non Valid pH,Uncharged
A-3517,"InChI=1S/C36H28N8O12S3.3Na/c1-19(45)32(36(47)38-21-7-3-2-4-8-21)42-39-22-11-13-23(14-12-22)40-43-33-28(58(51,52)53)17-20-18-29(59(54,55)56)34(35(46)30(20)31(33)37)44-41-26-15-16-27(57(48,49)50)25-10-6-5-9-24(25)26;;;/h2-18,32,41H,37H2,1H3,(H,38,47)(H,48,49,50)(H,51,52,53)(H,54,55,56);;;/q;3*+1/p-3/b42-39?,43-40?,44-34+;;;",-2.218028318,CC(=O)C(=N[N-]C1=CC=C(C=C1)N=NC1=C(N)C2=C(C=C(C(=NNC3=CC=C(C4=CC=CC=C34)S([O-])(=O)=O)C2=O)S([O-])(=O)=O)C=C1S([O-])(=O)=O)C(=O)NC1=CC=CC=C1,0,G1,A,None,None,Negative
A-3518,"InChI=1S/C8H11N/c1-6-3-4-8(9)7(2)5-6/h3-5H,9H2,1-2H3",-1.335253673,CC1=CC=C(N)C(C)=C1,0,G1,A,None,Non Valid pH,Uncharged
A-3519,"InChI=1S/C6H6ClN/c7-5-3-1-2-4-6(5)8/h1-4H,8H2",-1.357574146,NC1=CC=CC=C1Cl,0.116418068,G5,A,None,None,Uncharged
A-3521,"InChI=1S/C6H9N2O2P/c7-11(8,9)10-6-4-2-1-3-5-6/h1-5H,(H4,7,8,9)",-1.487653403,NP(N)(=O)OC1=CC=CC=C1,0,G1,A,None,None,Uncharged
A-3523,"InChI=1S/C28H28N2O6S.Na/c1-2-36-22-13-8-11-18-24(22)28(32)26-20(29-17-9-4-3-5-10-17)15-16-21(25(26)27(18)31)30-19-12-6-7-14-23(19)37(33,34)35;/h6-8,11-17,29-30H,2-5,9-10H2,1H3,(H,33,34,35);/q;+1/p-1",-1.987836786,CCOC1=CC=CC2=C1C(=O)C1=C(NC3CCCCC3)C=CC(NC3=CC=CC=C3S([O-])(=O)=O)=C1C2=O,0,G1,A,None,None,Negative
A-3525,"InChI=1S/C6H16N2/c1-6(5-8)3-2-4-7/h6H,2-5,7-8H2,1H3",-1.327248701,CC(C[NH3+])CCC[NH3+],1.108127592,G2,A,None,None,Positive
A-3526,"InChI=1S/C6H9N3O2/c1-8-4(7)3-5(10)9(2)6(8)11/h3H,7H2,1-2H3",-1.453578731,CN1C(N)=CC(=O)N(C)C1=O,0,G1,A,None,None,Uncharged
A-3527,"InChI=1S/C10H16O2/c1-2-3-4-6-9-7-5-8-10(11)12-9/h2-3,9H,4-8H2,1H3/b3-2+",-1.488726291,CC=CCCC1CCCC(=O)O1,0.014610102,G3,A,None,None,Uncharged
A-3528,"InChI=1S/BF4.K/c2-1(3,4)5;/q-1;+1",-1.367638869,F[B-](F)(F)F,0,G1,A,None,None,Negative
A-3530,"InChI=1S/C12H14O4/c1-2-8-15-12(14)11(13)9-16-10-6-4-3-5-7-10/h3-7,9,13H,2,8H2,1H3/b11-9-",-1.622546359,CCCOC(=O)C(O)=COC1=CC=CC=C1,0,G1,A,None,None,Uncharged
A-3532,"InChI=1S/C4H6N4O/c5-2-1-3(9)8-4(6)7-2/h1H,(H5,5,6,7,8,9)",-1.378146596,NC1=NC(N)=CC(=O)N1,0,G1,A,None,None,Uncharged
A-3533,"InChI=1S/C7H8ClNO/c1-4-2-3-5(9)6(8)7(4)10/h2-3,10H,9H2,1H3",-1.48155287,CC1=CC=C(N)C(Cl)=C1O,0,G1,A,None,None,Uncharged
A-3534,"InChI=1S/C4H2N4O3/c5-8-1-2(9)6-4(11)7-3(1)10/h(H2,6,7,9,10,11)",-1.471757019,O=C1[N-]C(=O)[C-]([N+]#N)C(=O)[N-]1,0,G1,A,None,None,Negative
A-3536,"InChI=1S/C12H18O5/c1-5-11(13)16-9(3)7-15-8-10(4)17-12(14)6-2/h5-6,9-10H,1-2,7-8H2,3-4H3",-1.668298088,CC(COCC(C)OC(=O)C=C)OC(=O)C=C,0,G1,A,None,None,Uncharged
A-3537,"InChI=1S/C6H5NO2/c8-6(9)5-1-3-7-4-2-5/h1-4H,(H,8,9)",-1.375967099,[O-]C(=O)C1=CC=NC=C1,0,G1,A,None,None,Negative
A-3538,"InChI=1S/C4H8O2S2/c5-3-1-7-4(6)2-8-3/h3-6H,1-2H2",-1.469038232,OC1CSC(O)CS1,0,G1,A,None,Non Valid pH,Uncharged