ID,InChI,Solubility,SMILEScurated,SD,Group,Dataset,Composition,Error,Charge
A-4931,"InChI=1S/C8H8N2S/c1-5-3-2-4-6-7(5)10-8(11)9-6/h2-4H,1H3,(H2,9,10,11)",-3.13627918,CC1=CC=CC2=C1NC(=S)N2,0,G1,A,None,None,Uncharged
A-4932,"InChI=1S/C15H28O4.C13H24O4.2C12H24O2.2C10H20O2.C3H6O3.5Na/c1-3-4-5-6-7-8-9-10-11-12-14(16)19-13(2)15(17)18;1-3-4-5-6-7-8-9-10-12(14)17-11(2)13(15)16;2*1-2-3-4-5-6-7-8-9-10-11-12(13)14;2*1-2-3-4-5-6-7-8-9-10(11)12;1-2(4)3(5)6;;;;;/h13H,3-12H2,1-2H3,(H,17,18);11H,3-10H2,1-2H3,(H,15,16);2*2-11H2,1H3,(H,13,14);2*2-9H2,1H3,(H,11,12);2,4H,1H3,(H,5,6);;;;;/q;;;;;;;5*+1/p-5",-4.085731667,[Na+].[Na+].[Na+].[Na+].[Na+].CC(O)C([O-])=O.CCCCCCCCCC([O-])=O.CCCCCCCCCC([O-])=O.CCCCCCCCCCCC([O-])=O.CCCCCCCCCCCC([O-])=O.CCCCCCCCCC(=O)OC(C)C([O-])=O.CCCCCCCCCCCC(=O)OC(C)C([O-])=O,0,G1,A,None,Multi-constituent Substances,Zwitterion
A-4933,"InChI=1S/C11H22O/c1-2-3-4-5-6-7-8-9-10-11-12/h11H,2-10H2,1H3",-3.152023201,CCCCCCCCCCC=O,0,G1,A,None,None,Uncharged
A-4934,"InChI=1S/C7H3Cl2F3/c8-5-2-1-4(3-6(5)9)7(10,11)12/h1-3H",-3.267982491,FC(F)(F)C1=CC=C(Cl)C(Cl)=C1,0,G1,A,None,None,Uncharged
A-4939,"InChI=1S/C21H28O4/c1-15(22)13-24-19-9-5-17(6-10-19)21(3,4)18-7-11-20(12-8-18)25-14-16(2)23/h5-12,15-16,22-23H,13-14H2,1-4H3",-3.499700952,CC(O)COC1=CC=C(C=C1)C(C)(C)C1=CC=C(OCC(C)O)C=C1,0,G1,A,None,None,Uncharged
A-4941,"InChI=1S/C4H9Br/c1-3-4(2)5/h4H,3H2,1-2H3",-3.111478098,CCC(C)Br,0,G1,A,None,None,Uncharged
A-4942,"InChI=1S/C12H16O2/c1-10(2)9-14-12(13)8-11-6-4-3-5-7-11/h3-7,10H,8-9H2,1-2H3",-3.271047196,CC(C)COC(=O)CC1=CC=CC=C1,0,G1,A,None,None,Uncharged
A-4943,"InChI=1S/C22H30O3/c1-20-10-6-16(24)14-15(20)4-5-17-18(20)7-11-21(2)19(17)8-12-22(21,25)9-3-13-23/h14,17-19,23,25H,4-8,10-13H2,1-2H3/t17-,18+,19+,20+,21+,22?/m1/s1",-3.526033775,CC12CCC3C(CCC4=CC(=O)CCC34C)C1CCC2(O)C#CCO,0,G1,A,None,None,Uncharged
A-4944,"InChI=1S/C7H7Cl/c1-6-2-4-7(8)5-3-6/h2-5H,1H3",-3.102385677,CC1=CC=C(Cl)C=C1,0.191765247,G5,A,None,None,Uncharged
A-4945,"InChI=1S/C9H12/c1-2-8-5-7-3-4-9(8)6-7/h2-4,7-9H,1,5-6H2",-3.079886402,C=CC1CC2CC1C=C2,0,G1,A,None,None,Uncharged
A-4946,"InChI=1S/C16H30O2/c1-13(2)7-9-15(5,17)11-12-16(6,18)10-8-14(3)4/h13-14,17-18H,7-10H2,1-6H3",-3.437525292,CC(C)CCC(C)(O)C#CC(C)(O)CCC(C)C,0,G1,A,None,None,Uncharged
A-4947,InChI=1S/Ni.H2S/h;1H2,-3.022952972,[Ni],0,G1,A,None,None,Uncharged
A-4948,"InChI=1S/Fe.H3O4P/c;1-5(2,3)4/h;(H3,1,2,3,4)/q+3;/p-3",-3.261464491,OP([O-])([O-])=O,0,G1,A,None,None,Negative
A-4952,"InChI=1S/C12H12N2O2S/c13-9-3-1-5-11(7-9)17(15,16)12-6-2-4-10(14)8-12/h1-8H,13-14H2",-3.511895604,NC1=CC(=CC=C1)S(=O)(=O)C1=CC(N)=CC=C1,0,G1,A,None,None,Uncharged
A-4953,"InChI=1S/C12H18O2/c1-5-14-11(13)10-9(2)7-6-8-12(10,3)4/h6-7H,5,8H2,1-4H3",-3.411619706,CCOC(=O)C1=C(C)C=CCC1(C)C,0.033423396,G5,A,None,None,Uncharged
A-4955,"InChI=1S/C16H35N/c1-2-3-4-5-6-7-8-9-10-11-12-13-14-15-16-17/h2-17H2,1H3",-3.583510043,CCCCCCCCCCCCCCCC[NH3+],0.887275214,G4,A,None,None,Positive
A-4957,"InChI=1S/C18H39N/c1-2-3-4-5-6-7-8-9-10-11-12-13-14-15-16-17-18-19/h2-19H2,1H3",-3.631245614,CCCCCCCCCCCCCCCCCC[NH3+],0.887275214,G4,A,None,None,Positive
A-4958,InChI=1S/C8H3N3O2/c9-4-6-2-1-3-8(11(12)13)7(6)5-10/h1-3H,-2.937344842,[O-][N+](=O)C1=CC=CC(C#N)=C1C#N,0,G1,A,None,None,PureChargeSeparation
A-4959,"InChI=1S/C10H9ClN2O2/c11-5-6-13-9(14)7-3-1-2-4-8(7)12-10(13)15/h1-4H,5-6H2,(H,12,15)",-3.574799439,ClCCN1C(=O)NC2=CC=CC=C2C1=O,0,G1,A,None,None,Uncharged
A-4960,"InChI=1S/C13H20O/c1-4-5-8-12(14)11-7-6-9-13(2,3)10-11/h4,7H,1,5-6,8-10H2,2-3H3",-3.534247486,CC1(C)CCC=C(C1)C(=O)CCC=C,0,G1,A,None,None,Uncharged
A-4961,"InChI=1S/2C15H28O4/c2*1-4-7-8-14(5-2)13-18-10-9-17-11-12-19-15(16)6-3/h2*6,14H,3-5,7-13H2,1-2H3/t2*14-/m10/s1",-3.994274106,CCCCC(CC)COCCOCCOC(=O)C=C,0,G1,A,None,None,Uncharged
A-4962,"InChI=1S/C22H16N4O2.C16H14N4O5S.Cr.2Na/c27-20-13-11-17(24-23-16-7-2-1-3-8-16)14-19(20)25-26-22-18-9-5-4-6-15(18)10-12-21(22)28;1-10-15(16(22)20(19-10)11-5-3-2-4-6-11)18-17-13-9-12(26(23,24)25)7-8-14(13)21;;;/h1-14,27-28H;2-9,21-22H,1H3,(H,23,24,25);;;/q;;+3;2*+1/p-5",-2.691606678,[Na+].[Na+].[Cr+3].CC1=C(N=NC2=CC(=CC=C2O)S([O-])(=O)=O)C(=O)N([N-]1)C1=CC=CC=C1.OC1=C(N=NC2=CC(=CC=C2[O-])N=NC2=CC=CC=C2)C2=CC=CC=C2C=C1,0,G1,A,None,Multi-constituent Substances,Zwitterion
A-4966,"InChI=1S/C14H24O2/c1-7-16-10(2)12-13(3,4)8-11(15)9-14(12,5)6/h12H,2,7-9H2,1,3-6H3",-3.643344283,CCOC(=C)C1C(C)(C)CC(=O)CC1(C)C,0,G1,A,None,None,Uncharged
A-4967,"InChI=1S/C7H14N2O2.ClH/c1-9(2)4-3-6(10)5-7(8)11;/h4,6,10H,3,5H2,1-2H3,(H-,8,11);1H",0.593129503,C[N+](C)=CCC(O)CC(N)=O,0.006146484,G3,A,None,None,Positive
A-4968,InChI=1S/C6H3Cl2NO2/c7-4-1-5(8)3-6(2-4)9(10)11/h1-3H,-3.584333486,[O-][N+](=O)C1=CC(Cl)=CC(Cl)=C1,0,G1,A,None,None,PureChargeSeparation
A-4969,"InChI=1S/C6H12S/c7-6-4-2-1-3-5-6/h6-7H,1-5H2",-3.367213956,SC1CCCCC1,0,G1,A,None,None,Uncharged
A-4971,InChI=1S/2S.Sn/q2*-2;+4,-3.580841851,[SH-].[SH-].[Sn+4],0,G1,A,None,None,Negative
A-4972,"InChI=1S/C14H21N3O/c1-11-4-3-5-12(2)14(11)16-13(18)10-17-8-6-15-7-9-17/h3-5,15H,6-10H2,1-2H3,(H,16,18)/p+2",0.443282789,CC1=CC=CC(C)=C1NC(=O)CN1CC[NH2+]CC1,0,G1,A,None,None,Positive
A-4973,"InChI=1S/2CH2O3.3Na/c2*2-1(3)4;;;/h2*(H2,2,3,4);;;/q;;3*+1/p-3",0.050861362,OC([O-])=O,0,G1,A,None,None,Negative
A-4974,"InChI=1S/C4H4ClNO2S2/c5-3-1-2-4(9-3)10(6,7)8/h1-2H,(H2,6,7,8)",-3.295936368,NS(=O)(=O)C1=CC=C(Cl)S1,0,G1,A,None,None,Uncharged
A-4975,"InChI=1S/C11H14FNO2/c1-8(2)13(11(15)7-14)10-5-3-9(12)4-6-10/h3-6,8,14H,7H2,1-2H3",-1.178639899,CC(C)N(C(=O)CO)C1=CC=C(F)C=C1,0,G1,A,None,None,Uncharged
A-4979,"InChI=1S/2Cu.H3O4P.H2O/c;;1-5(2,3)4;/h;;(H3,1,2,3,4);1H2/q2*+2;;/p-4",-3.745054809,O.[Cu++].[Cu++].OP([O-])([O-])=O,0,G1,A,None,None,Negative
A-4980,"InChI=1S/C10H18O2/c1-3-5-6-7-8-10(11)12-9-4-2/h4H,2-3,5-9H2,1H3",-3.597623767,CCCCCCC(=O)OCC=C,0,G1,A,None,None,Uncharged
A-4982,"InChI=1S/C13H20O/c1-2-3-4-5-6-7-12-8-10-13(14)11-9-12/h8-11,14H,2-7H2,1H3",-3.659701705,CCCCCCCC1=CC=C(O)C=C1,0,G1,A,None,None,Uncharged
A-4984,"InChI=1S/C17H26O3/c1-2-3-4-5-6-7-8-9-15-10-12-16(13-11-15)20-14-17(18)19/h10-13H,2-9,14H2,1H3,(H,18,19)",-3.84259676,CCCCCCCCCC1=CC=C(OCC([O-])=O)C=C1,0,G1,A,None,None,Negative
A-4985,"InChI=1S/2C6H8O7.3Zn/c2*7-3(8)1-6(13,5(11)12)2-4(9)10;;;/h2*13H,1-2H2,(H,7,8)(H,9,10)(H,11,12);;;/q;;3*+2/p-6",-2.254040258,OC(CC([O-])=O)(CC([O-])=O)C([O-])=O,0,G1,A,None,None,Negative
A-4992,"InChI=1S/C14H26N2S4/c1-4-5-6-7-8-9-10-11-14(2,3)20-19-13-16-15-12(17)18-13/h4-11H2,1-3H3,(H,15,17)",-3.988563911,CCCCCCCCCC(C)(C)SSC1=NNC(=S)S1,0,G1,A,None,None,Uncharged
A-4993,"InChI=1S/C14H24O/c1-10(12(3)15)6-8-13-9-7-11(2)14(13,4)5/h6-8,10,12-13,15H,9H2,1-5H3/b8-6-",-3.786028703,CC(O)C(C)C=CC1CC=C(C)C1(C)C,0,G1,A,None,None,Uncharged
A-4994,"InChI=1S/C3H9N3O2.ClH/c4-2(1-7)3(8)6-5;/h2,7H,1,4-5H2,(H,6,8);1H",0.510462812,NNC(=O)C([NH3+])CO,0,G1,A,None,None,Positive
A-4997,"InChI=1S/C21H24O2/c1-5-7-15-13-17(9-11-19(15)22)21(3,4)18-10-12-20(23)16(14-18)8-6-2/h5-6,9-14,22-23H,1-2,7-8H2,3-4H3",-3.996383552,CC(C)(C1=CC=C(O)C(CC=C)=C1)C1=CC=C(O)C(CC=C)=C1,0,G1,A,None,None,Uncharged
A-4998,"InChI=1S/C9H18O3/c1-7(2)4-9(3)11-6-8(5-10)12-9/h7-8,10H,4-6H2,1-3H3",-0.705980377,CC(C)CC1(C)OCC(CO)O1,0,G1,A,None,None,Uncharged
A-4999,"InChI=1S/F6S/c1-7(2,3,4,5)6",-3.673154735,FS(F)(F)(F)(F)F,0,G1,A,None,None,Uncharged
A-5000,"InChI=1S/C24H51N/c1-22(2)16-10-7-13-19-25(20-14-8-11-17-23(3)4)21-15-9-12-18-24(5)6/h22-24H,7-21H2,1-6H3",-4.05724758,CC(C)CCCCC[NH+](CCCCCC(C)C)CCCCCC(C)C,0.336495581,G3,A,None,None,Positive
A-5003,"InChI=1S/C18H22N2/c1-3-7-16(8-4-1)15-20-13-11-18(12-14-20)19-17-9-5-2-6-10-17/h1-10,18-19H,11-15H2",-3.954222946,C([NH+]1CCC(CC1)NC1=CC=CC=C1)C1=CC=CC=C1,0,G1,A,None,None,Positive
A-5004,"InChI=1S/C16H15BrO2/c17-12-11-16(15(18)19,13-7-3-1-4-8-13)14-9-5-2-6-10-14/h1-10H,11-12H2,(H,18,19)",-4.069491258,[O-]C(=O)C(CCBr)(C1=CC=CC=C1)C1=CC=CC=C1,0,G1,A,None,None,Negative
A-5005,"InChI=1S/C22H28O3/c1-20-9-5-15(23)13-14(20)3-4-16-17(20)6-10-21(2)18(16)7-11-22(21)12-8-19(24)25-22/h3-4,13,16-18H,5-12H2,1-2H3",-4.100706158,CC12CCC3C(C=CC4=CC(=O)CCC34C)C1CCC21CCC(=O)O1,0,G1,A,None,None,Uncharged
A-5006,"InChI=1S/C22H41NO6S.2Na/c1-2-3-4-5-6-7-8-9-10-11-12-13-14-15-16-17-18-23-21(24)19-20(22(25)26)30(27,28)29;;/h9-10,20H,2-8,11-19H2,1H3,(H,23,24)(H,25,26)(H,27,28,29);;/q;2*+1/p-2/b10-9-;;",-0.019515783,CCCCCCCCC=CCCCCCCCCNC(=O)CC(C([O-])=O)S([O-])(=O)=O,0,G1,A,None,None,Negative
A-5007,"InChI=1S/C9H8F8O2/c1-4(2)5(18)19-3-7(12,13)9(16,17)8(14,15)6(10)11/h6H,1,3H2,2H3",-4.045967349,CC(=C)C(=O)OCC(F)(F)C(F)(F)C(F)(F)C(F)F,0.097142779,G5,A,None,None,Uncharged
A-5010,"InChI=1S/C9H18O2/c1-9(2,3)7-5-4-6-8(10)11/h4-7H2,1-3H3,(H,10,11)",-2.475043149,CC(C)(C)CCCCC([O-])=O,0.853543947,G2,A,None,None,Negative
A-5012,"InChI=1S/C16H18O2/c1-17-11-13-3-7-15(8-4-13)16-9-5-14(6-10-16)12-18-2/h3-10H,11-12H2,1-2H3",-4.002368633,COCC1=CC=C(C=C1)C1=CC=C(COC)C=C1,0,G1,A,None,None,Uncharged
A-5013,"InChI=1S/C30H58O6/c1-3-5-7-9-11-13-15-17-19-21-23-25-27-33-29(31)35-36-30(32)34-28-26-24-22-20-18-16-14-12-10-8-6-4-2/h3-28H2,1-2H3",-4.349900579,CCCCCCCCCCCCCCOC(=O)OOC(=O)OCCCCCCCCCCCCCC,0.014603636,G3,A,None,Below LoD Below LoQ,Uncharged
A-5014,InChI=1S/Fe.S,-3.621828866,S=[Fe],0,G1,A,None,None,Uncharged
A-5015,"InChI=1S/C10H12/c1-2-9-7-4-5-8(6-7)10(9)3-1/h1-2,4-5,7-10H,3,6H2",-3.82022117,C1C=CC2C3CC(C=C3)C12,0,G1,A,None,None,Uncharged
A-5016,"InChI=1S/C13H26O/c1-11(2)7-5-8-12(3)9-6-10-13(4)14/h11-12H,5-10H2,1-4H3",-4.005176134,CC(C)CCCC(C)CCCC(C)=O,0,G1,A,None,None,Uncharged
A-5018,"InChI=1S/C8H14/c1-2-4-6-8-7-5-3-1/h1-2H,3-8H2/b2-1-",-3.770339988,C1CCCC=CCC1,0.621910565,G4,A,None,None,Uncharged
A-5019,InChI=1S/C6H12N2S4/c1-7(2)5(9)11-12-6(10)8(3)4/h1-4H3,-4.116196121,CN(C)C(=S)SSC(=S)N(C)C,0.110184809,G5,A,None,None,Uncharged
A-5021,"InChI=1S/C9H22O2Si/c1-8(2)7-12(10-5,11-6)9(3)4/h8-9H,7H2,1-6H3",-4.02430091,CO[Si](CC(C)C)(OC)C(C)C,0,G1,A,None,None,Uncharged
A-5022,"InChI=1S/C48H86N4O8/c1-41(2)23-31(24-42(3,4)49(41)17)57-37(53)21-35(39(55)59-33-27-45(9,10)51(19)46(11,12)28-33)36(40(56)60-34-29-47(13,14)52(20)48(15,16)30-34)22-38(54)58-32-25-43(5,6)50(18)44(7,8)26-32/h31-36H,21-30H2,1-20H3",-4.672731896,C[NH+]1C(C)(C)CC(CC1(C)C)OC(=O)CC(C(CC(=O)OC1CC(C)(C)[NH+](C)C(C)(C)C1)C(=O)OC1CC(C)(C)[NH+](C)C(C)(C)C1)C(=O)OC1CC(C)(C)[NH+](C)C(C)(C)C1,0,G1,A,None,None,Positive
A-5025,"InChI=1S/C6H11NO2.ClH/c8-6(9)5-1-3-7-4-2-5;/h5,7H,1-4H2,(H,8,9);1H",0.384031592,[O-]C(=O)C1CC[NH2+]CC1,0,G1,A,None,None,Zwitterion
A-5026,"InChI=1S/C28H27ClN2O7/c1-4-38-28(35)24-21(15-37-14-13-31-25(32)17-9-5-6-10-18(17)26(31)33)30-16(2)22(27(34)36-3)23(24)19-11-7-8-12-20(19)29/h5-12,23,30H,4,13-15H2,1-3H3",-4.501126952,CCOC(=O)C1C(C2=CC=CC=C2Cl)C(C(=O)OC)=C(C)NC1=COCCN1C(=O)C2=CC=CC=C2C1=O,0,G1,A,None,None,Uncharged
A-5027,"InChI=1S/C12H20O2/c1-2-10-14-12(13)9-8-11-6-4-3-5-7-11/h2,11H,1,3-10H2",-4.062449254,C=CCOC(=O)CCC1CCCCC1,0,G1,A,None,None,Uncharged
A-5028,"InChI=1S/C15H18N6O6S/c1-4-27-15-19-12(16-2)17-13(20-15)18-14(23)21-28(24,25)10-8-6-5-7-9(10)11(22)26-3/h5-8H,4H2,1-3H3,(H3,16,17,18,19,20,21,23)",-4.387910769,CCOC1=NC(NC)=NC(NC(=O)[N-]S(=O)(=O)C2=CC=CC=C2C(=O)OC)=N1,1.388382202,G4,A,None,None,Negative
A-5029,"InChI=1S/CH2O3.Ca/c2-1(3)4;/h(H2,2,3,4);/q;+2/p-2",-3.780265245,OC([O-])=O,0,G1,A,None,None,Negative
A-5032,"InChI=1S/C15H18N2/c1-10-7-12(3-5-14(10)16)9-13-4-6-15(17)11(2)8-13/h3-8H,9,16-17H2,1-2H3",-4.150608709,CC1=CC(CC2=CC=C(N)C(C)=C2)=CC=C1N,0,G1,A,None,None,Uncharged
A-5033,"InChI=1S/C13H28N2S/c1-4-7-10-14-13(16)15(11-8-5-2)12-9-6-3/h4-12H2,1-3H3,(H,14,16)",-4.184066506,CCCCNC(=S)N(CCCC)CCCC,0,G1,A,None,None,Uncharged
A-5034,"InChI=1S/C16H35N/c1-5-9-11-15(7-3)13-17-14-16(8-4)12-10-6-2/h15-17H,5-14H2,1-4H3",-4.236722556,CCCCC(CC)C[NH2+]CC(CC)CCCC,0.253542239,G3,A,None,None,Positive
A-5035,"InChI=1S/C13H12Cl2N2/c14-10-6-8(1-3-12(10)16)5-9-2-4-13(17)11(15)7-9/h1-4,6-7H,5,16-17H2",-4.286890723,NC1=CC=C(CC2=CC=C(N)C(Cl)=C2)C=C1Cl,0,G1,A,None,None,Uncharged
A-5036,"InChI=1S/C15H26O/c1-11-7-8-13(15(11,5)6)9-10-14(3,4)12(2)16/h7,9-10,12-13,16H,8H2,1-6H3/b10-9+",-4.216746334,CC(O)C(C)(C)C=CC1CC=C(C)C1(C)C,1.509872029,G2,A,None,None,Uncharged
A-5040,"InChI=1S/C16H35O2P/c1-13(9-15(3,4)5)11-19(17,18)12-14(2)10-16(6,7)8/h13-14H,9-12H2,1-8H3,(H,17,18)",-4.366128471,CC(CC(C)(C)C)CP([O-])(=O)CC(C)CC(C)(C)C,0,G1,A,None,None,Negative
A-5041,"InChI=1S/C13H12FN3O2S2/c14-9-1-3-10(4-2-9)16-13(20)17-11-5-7-12(8-6-11)21(15,18)19/h1-8H,(H2,15,18,19)(H2,16,17,20)",-2.989959968,NS(=O)(=O)C1=CC=C(NC(=S)NC2=CC=C(F)C=C2)C=C1,0,G1,A,None,None,Uncharged
A-5043,"InChI=1S/C27H28N4O5/c1-3-36-27(34)24-22-15-17-30(19-9-7-18(8-10-19)29-16-5-4-6-23(29)32)26(33)25(22)31(28-24)20-11-13-21(35-2)14-12-20/h7-14H,3-6,15-17H2,1-2H3",-4.628205844,CCOC(=O)C1=NN(C2=C1CCN(C1=CC=C(C=C1)N1CCCCC1=O)C2=O)C1=CC=C(OC)C=C1,0,G1,A,None,None,Uncharged
A-5045,"InChI=1S/C15H10Cl2N2O2/c16-9-5-6-13-11(7-9)15(19(21)8-14(20)18-13)10-3-1-2-4-12(10)17/h1-7,21H,8H2",-4.465332821,ON1CC(=O)N=C2C=CC(Cl)=CC2=C1C1=CC=CC=C1Cl,0,G1,A,None,None,Uncharged
A-5048,"InChI=1S/C6H14/c1-3-5-6-4-2/h3-6H2,1-2H3",-3.944170335,CCCCCC,0.052586226,G5,A,None,None,Uncharged
A-5049,"InChI=1S/C10H18N8/c11-7-17-9(13)15-5-3-1-2-4-6-16-10(14)18-8-12/h1-6H2,(H3,13,15,17)(H3,14,16,18)",-4.434690373,N=C(NCCCCCCNC(=N)NC#N)NC#N,0.136795874,G3,A,None,None,Uncharged
A-5050,"InChI=1S/C13H22O2/c1-6-12(14)15-13(5,7-2)10-8-9-11(3)4/h7,9H,2,6,8,10H2,1,3-5H3",-4.382357893,CCC(=O)OC(C)(CCC=C(C)C)C=C,0,G1,A,None,None,Uncharged
A-5051,"InChI=1S/2C20H16N4O5S.Cr.3Na/c2*1-12-18(20(26)24(23-12)13-7-3-2-4-8-13)21-22-19-15-10-6-5-9-14(15)17(11-16(19)25)30(27,28)29;;;;/h2*2-11,25-26H,1H3,(H,27,28,29);;;;/q;;+3;3*+1/p-6",-1.212102898,CC1=C(N=NC2=C(O)C=C(C3=CC=CC=C23)S([O-])(=O)=O)C(=O)N([N-]1)C1=CC=CC=C1,0,G1,A,None,None,Negative
A-5053,"InChI=1S/C25H54N.CH4O4S/c1-5-6-7-8-9-10-11-12-13-14-15-16-17-18-19-20-21-22-23-24-25-26(2,3)4;1-5-6(2,3)4/h5-25H2,1-4H3;1H3,(H,2,3,4)/q+1;/p-1",-4.835973065,CCCCCCCCCCCCCCCCCCCCCC[N+](C)(C)C,0,G1,A,None,Cosolvent Buffer,Positive
A-5054,"InChI=1S/C15H13NO/c1-17-15-10-11-6-2-4-8-13(11)16-14-9-5-3-7-12(14)15/h2-10,16H,1H3",-4.514419394,COC1=CC2=CC=CC=C2NC2=CC=CC=C12,0,G1,A,None,None,Uncharged
A-5057,"InChI=1S/C20H40O/c1-7-20(6,21)16-10-15-19(5)14-9-13-18(4)12-8-11-17(2)3/h7,17-19,21H,1,8-16H2,2-6H3",-4.708653825,CC(C)CCCC(C)CCCC(C)CCCC(C)(O)C=C,0,G1,A,None,None,Uncharged
A-5059,"InChI=1S/C27H33N2.H2O4S/c1-5-28(6-2)25-18-14-23(15-19-25)27(22-12-10-9-11-13-22)24-16-20-26(21-17-24)29(7-3)8-4;1-5(2,3)4/h9-21H,5-8H2,1-4H3;(H2,1,2,3,4)/q+1;/p-1",-2.057288344,[O-]S([O-])(=O)=O.CCN(CC)C1=CC=C(C=C1)[C+](C1=CC=CC=C1)C1=CC=C(C=C1)N(CC)CC,0,G1,A,None,Cosolvent Buffer,Zwitterion
A-5060,"InChI=1S/C20H24O2/c1-3-20-11-10-16-15-7-5-14(22-2)12-13(15)4-6-17(16)18(20)8-9-19(20)21/h5,7,12,18H,3-4,6,8-11H2,1-2H3/t18-,20-/m0/s1",-4.772922847,CCC12CCC3=C(CCC4=CC(OC)=CC=C34)C1CCC2=O,0,G1,A,None,None,Uncharged
A-5061,"InChI=1S/C19H28O2/c1-19-10-9-15-14-6-4-13(21-2)11-12(14)3-5-16(15)17(19)7-8-18(19)20/h4,15-18,20H,3,5-11H2,1-2H3/t15-,16-,17+,18+,19+/m1/s1",-4.761071931,COC1=CCC2=C(CCC3C4CCC(O)C4(C)CCC23)C1,0,G1,A,None,None,Uncharged
A-5063,"InChI=1S/C20H24O3/c1-3-20(18(21)9-10-19(20)22)12-11-14-5-4-6-15-13-16(23-2)7-8-17(14)15/h7-8,11,13H,3-6,9-10,12H2,1-2H3/b14-11-",-4.838817119,CCC1(CC=C2CCCC3=CC(OC)=CC=C23)C(=O)CCC1=O,0,G1,A,None,None,Uncharged
A-5064,"InChI=1S/CH2O3.Mn/c2-1(3)4;/h(H2,2,3,4);/q;+2/p-2",-4.500587238,OC([O-])=O,0,G1,A,None,None,Negative
A-5065,"InChI=1S/C17H12Cl2N2O3/c1-9(22)24-17-16(23)20-14-7-6-10(18)8-12(14)15(21-17)11-4-2-3-5-13(11)19/h2-8,17H,1H3,(H,20,23)",-5.028666923,CC(=O)O[C-]1N=C(C2=CC=CC=C2Cl)C2=CC(Cl)=CC=C2NC1=O,0,G1,A,None,None,Negative
A-5067,"InChI=1S/C19H26O2/c1-19-10-9-15-14-6-4-13(21-2)11-12(14)3-5-16(15)17(19)7-8-18(19)20/h4,15-17H,3,5-11H2,1-2H3",-4.979874504,COC1=CCC2=C(CCC3C4CCC(=O)C4(C)CCC23)C1,0,G1,A,None,None,Uncharged
A-5069,"InChI=1S/C16H13N/c1-2-9-14(10-3-1)17-16-12-6-8-13-7-4-5-11-15(13)16/h1-12,17H",-4.863891631,N(C1=CC=CC=C1)C1=CC=CC2=CC=CC=C12,0.650495816,G2,A,None,None,Uncharged
A-5070,"InChI=1S/C16H14O4/c17-15(13-7-3-1-4-8-13)19-11-12-20-16(18)14-9-5-2-6-10-14/h1-10H,11-12H2",-5.070092502,O=C(OCCOC(=O)C1=CC=CC=C1)C1=CC=CC=C1,0,G1,A,None,None,Uncharged
A-5071,InChI=1S/Ni.O,-4.519165649,O=[Ni],0,G1,A,None,None,Uncharged
A-5072,"InChI=1S/C15H24O2/c1-11-7-9-14(3)12(2)6-5-8-15(14,4)13(11)17-10-16/h6,10-11,13H,5,7-9H2,1-4H3",-5.031142113,CC1CCC2(C)C(C)=CCCC2(C)C1OC=O,0,G1,A,None,None,Uncharged
A-5073,"InChI=1S/C18H28O3/c1-17(2,3)13-10-12(8-9-15(19)21-7)11-14(16(13)20)18(4,5)6/h10-11,20H,8-9H2,1-7H3",-5.123582907,COC(=O)CCC1=CC(=C(O)C(=C1)C(C)(C)C)C(C)(C)C,0,G1,A,None,None,Uncharged
A-5074,"InChI=1S/C19H28O4/c1-3-7-15(8-4-1)17-20-11-19(12-21-17)13-22-18(23-14-19)16-9-5-2-6-10-16/h1-3,5,15-18H,4,6-14H2",-5.239735444,C1CC(CC=C1)C1OCC2(CO1)COC(OC2)C1CCC=CC1,0,G1,A,None,None,Uncharged
A-5076,"InChI=1S/C16H26O/c1-5-12(2)14(4)13(3)6-7-15-8-10-16(17)11-9-15/h8-14,17H,5-7H2,1-4H3",-5.182405388,CCC(C)C(C)C(C)CCC1=CC=C(O)C=C1,0.056754637,G3,A,None,None,Uncharged
A-5077,"InChI=1S/C20H28O2/c1-3-20-11-10-16-15-7-5-14(22-2)12-13(15)4-6-17(16)18(20)8-9-19(20)21/h5,16-18H,3-4,6-12H2,1-2H3/t16-,17-,18+,20+/m1/s1",-5.363817292,CCC12CCC3C(CCC4=C3CC=C(C4)OC)C1CCC2=O,0.341289794,G3,A,None,None,Uncharged
A-5078,"InChI=1S/C39H66O6/c1-31(2)22-16-10-7-13-19-27-43-37(40)34-25-26-35(38(41)44-28-20-14-8-11-17-23-32(3)4)36(30-34)39(42)45-29-21-15-9-12-18-24-33(5)6/h25-26,30-33H,7-24,27-29H2,1-6H3",-5.706573948,CC(C)CCCCCCCOC(=O)C1=CC=C(C(=O)OCCCCCCCC(C)C)C(=C1)C(=O)OCCCCCCCC(C)C,0,G1,A,None,None,Uncharged
A-5079,InChI=1S/ClH.2Cu.3H2O/h1H;;;3*1H2/q;2*+2;;;/p-4,-5.253985152,O.O.O.[Cl-].[Cu++].[Cu++],2.414297884,G4,A,None,None,Negative
A-5081,"InChI=1S/2C3H7NS2.Zn/c2*1-4(2)3(5)6;/h2*1-2H3,(H,5,6);/q;;+2/p-2",-5.498714031,[Zn++].CN(C)C([S-])=S.CN(C)C([S-])=S,0,G1,A,None,None,Negative
A-5082,"InChI=1S/C18H36O/c1-15(2)9-6-10-16(3)11-7-12-17(4)13-8-14-18(5)19/h15-17H,6-14H2,1-5H3",-5.474677518,CC(C)CCCC(C)CCCC(C)CCCC(C)=O,0,G1,A,None,None,Uncharged
A-5083,InChI=1S/Mn.O,-4.921453892,O=[Mn],0,G1,A,None,None,Uncharged
A-5084,"InChI=1S/C40H62O19/c1-18(2)33(43)50-16-27-29(54-35(45)20(5)6)32(57-38(48)23(11)12)40(58-27,17-51-25(14)42)59-39-31(56-37(47)22(9)10)30(55-36(46)21(7)8)28(53-34(44)19(3)4)26(52-39)15-49-24(13)41/h18-23,26-32,39H,15-17H2,1-14H3/t26-,27-,28-,29-,30+,31-,32+,39-,40+/m1/s1",-6.073534809,CC(C)C(=O)OCC1OC(COC(C)=O)(OC2OC(COC(C)=O)C(OC(=O)C(C)C)C(OC(=O)C(C)C)C2OC(=O)C(C)C)C(OC(=O)C(C)C)C1OC(=O)C(C)C,0,G1,A,None,None,Uncharged
A-5086,InChI=1S/Mn,-4.894774805,[Mn],0,G1,A,None,None,Uncharged
A-5088,InChI=1S/3FH.La/h3*1H;/q;;;+3/p-3,-5.535398328,[F-].[F-].[F-].[La+3],1.258315074,G4,A,None,None,Negative
A-5090,"InChI=1S/C15H12O2/c16-14(12-7-3-1-4-8-12)11-15(17)13-9-5-2-6-10-13/h1-10H,11H2",-5.657902962,[O-]C(=CC(=O)C1=CC=CC=C1)C1=CC=CC=C1,0,G1,A,None,None,Negative
A-5091,"InChI=1S/C13H11N3O3/c1-9-6-7-13(17)11(8-9)15-14-10-4-2-3-5-12(10)16(18)19/h2-8,14H,1H3/b15-11+",-5.747595864,CC1=CC(N=NC2=CC=CC=C2[N+]([O-])=O)=C(O)C=C1,0,G1,A,None,None,PureChargeSeparation
A-5092,InChI=1S/Cu.O,-5.305116664,O=[Cu],1.801922284,G4,A,None,None,Uncharged
A-5093,"InChI=1S/4Fe.3H4O7P2/c;;;;3*1-8(2,3)7-9(4,5)6/h;;;;3*(H2,1,2,3)(H2,4,5,6)/q4*+3;;;/p-12",-6.30760853,OP([O-])(=O)OP([O-])([O-])=O,0,G1,A,None,None,Negative
A-5094,"InChI=1S/2C12H26S.2C4H9.Sn/c2*1-2-3-4-5-6-7-8-9-10-11-12-13;2*1-3-4-2;/h2*13H,2-12H2,1H3;2*1,3-4H2,2H3;/q;;;;+2/p-2",-6.295424349,CCCCCCCCCCCCS[Sn](CCCC)(CCCC)SCCCCCCCCCCCC,0,G1,A,None,None,Uncharged
A-5095,"InChI=1S/C54H106O4/c1-3-5-7-9-11-13-15-17-19-21-23-25-27-29-31-33-35-39-43-47-51-57-53(55)49-45-41-37-38-42-46-50-54(56)58-52-48-44-40-36-34-32-30-28-26-24-22-20-18-16-14-12-10-8-6-4-2/h3-52H2,1-2H3",-6.405660228,CCCCCCCCCCCCCCCCCCCCCCOC(=O)CCCCCCCCC(=O)OCCCCCCCCCCCCCCCCCCCCCC,0,G1,A,None,Non Valid pH,Uncharged
A-5096,"InChI=1S/C24H32O4/c1-14-12-18-19(22(4)9-6-17(27)13-21(14)22)7-10-23(5)20(18)8-11-24(23,15(2)25)28-16(3)26/h13,18-20H,1,6-12H2,2-5H3",-6.107793161,CC(=O)OC1(CCC2C3CC(=C)C4=CC(=O)CCC4(C)C3CCC12C)C(C)=O,0,G1,A,None,None,Uncharged