ID,InChI,Solubility,SMILEScurated,SD,Group,Dataset,Composition,Error,Charge
A-2542,"InChI=1S/C15H28O8S4.C6H15O3PS2/c1-14(8-20-24,9-21-25)6-18-12(16)4-3-5-13(17)19-7-15(2,10-22-26)11-23-27;1-2-6(3-7-10,4-8-11)5-9-12/h24-27H,3-11H2,1-2H3;11-12H,2-5,10H2,1H3",-5.84194731,CC(COS)(COS)COC(=O)CCCC(=O)OCC(C)(COS)COS,0,G1,A,None,Multi-constituent Substances,Uncharged
A-2543,InChI=1S/CB4/c2-1-3(2)5(1)4(1)2,-4.742403021,B12B3B4B1C234,0.571333752,G2,A,mono-constituent,None,Uncharged
A-2544,"InChI=1S/C20H25N3O/c1-19(2,3)13-20(4,5)14-10-11-18(24)17(12-14)23-21-15-8-6-7-9-16(15)22-23/h6-12,24H,13H2,1-5H3",-5.509793728,CC(C)(C)CC(C)(C)C1=CC=C(O)C(=C1)N1N=C2C=CC=CC2=N1,1.349485002,G2,A,mono-constituent,None,Uncharged
A-2545,"InChI=1S/C13H11N3O/c1-9-6-7-13(17)12(8-9)16-14-10-4-2-3-5-11(10)15-16/h2-8,17H,1H3",-5.352666728,CC1=CC=C(O)C(=C1)N1N=C2C=CC=CC2=N1,0.380976948,G3,A,mono-constituent,None,Uncharged
A-2546,"InChI=1S/C38H58O6S/c1-35(2,3)27-21-25(22-28(33(27)41)36(4,5)6)13-15-31(39)43-17-19-45-20-18-44-32(40)16-14-26-23-29(37(7,8)9)34(42)30(24-26)38(10,11)12/h21-24,41-42H,13-20H2,1-12H3",-5.808172472,CC(C)(C)C1=CC(CCC(=O)OCCSCCOC(=O)CCC2=CC(=C(O)C(=C2)C(C)(C)C)C(C)(C)C)=CC(=C1O)C(C)(C)C,0,G1,A,mono-constituent,None,Uncharged
A-2547,"InChI=1S/C34H50O8/c1-23-19-25(21-27(31(23)37)33(3,4)5)9-11-29(35)41-17-15-39-13-14-40-16-18-42-30(36)12-10-26-20-24(2)32(38)28(22-26)34(6,7)8/h19-22,37-38H,9-18H2,1-8H3",-5.768464941,CC1=CC(CCC(=O)OCCOCCOCCOC(=O)CCC2=CC(C)=C(O)C(=C2)C(C)(C)C)=CC(=C1O)C(C)(C)C,0.49148333,G3,A,mono-constituent,None,Uncharged
A-2548,"InChI=1S/C21H26O3/c1-2-3-4-5-6-10-15-24-18-13-14-19(20(22)16-18)21(23)17-11-8-7-9-12-17/h7-9,11-14,16,22H,2-6,10,15H2,1H3",-5.513798048,CCCCCCCCOC1=CC=C(C(=O)C2=CC=CC=C2)C(O)=C1,1.5,G2,A,mono-constituent,None,Uncharged
A-2549,"InChI=1S/C12H26O/c1-3-5-7-8-10-12(11-13)9-6-4-2/h12-13H,3-11H2,1-2H3",-5.270303761,CCCCCCC(CO)CCCC,0,G1,A,mono-constituent,None,Uncharged
A-2550,"InChI=1S/C24H50O/c1-3-5-7-9-11-13-14-16-18-20-22-24(23-25)21-19-17-15-12-10-8-6-4-2/h24-25H,3-23H2,1-2H3",-5.549815883,CCCCCCCCCCCCC(CO)CCCCCCCCCC,0,G1,A,mono-constituent,None,Uncharged
A-2551,"InChI=1S/C28H58O/c1-3-5-7-9-11-13-15-16-18-20-22-24-26-28(27-29)25-23-21-19-17-14-12-10-8-6-4-2/h28-29H,3-27H2,1-2H3",-5.613599775,CCCCCCCCCCCCCCC(CO)CCCCCCCCCCCC,0,G1,A,mono-constituent,None,Uncharged
A-2552,"InChI=1S/C17H36O2/c1-5-9-11-16(7-3)13-18-15-19-14-17(8-4)12-10-6-2/h16-17H,5-15H2,1-4H3",-5.435323474,CCCCC(CC)COCOCC(CC)CCCC,0,G1,A,mono-constituent,None,Uncharged
A-2553,"InChI=1S/C16H34O/c1-3-5-7-9-10-12-14-16(15-17)13-11-8-6-4-2/h16-17H,3-15H2,1-2H3",-5.384616815,CCCCCCCCC(CO)CCCCCC,0,G1,A,mono-constituent,None,Uncharged
A-2554,"InChI=1S/C17H18ClN3O/c1-10-7-12(17(2,3)4)16(22)15(8-10)21-19-13-6-5-11(18)9-14(13)20-21/h5-9,22H,1-4H3",-5.499417627,CC1=CC(N2N=C3C=CC(Cl)=CC3=N2)=C(O)C(=C1)C(C)(C)C,1.198970004,G2,A,mono-constituent,None,Uncharged
A-2555,"InChI=1S/C25H36O2/c1-9-16-11-18(22(26)20(13-16)24(3,4)5)15-19-12-17(10-2)14-21(23(19)27)25(6,7)8/h11-14,26-27H,9-10,15H2,1-8H3",-5.566509378,CCC1=CC(=C(O)C(CC2=C(O)C(=CC(CC)=C2)C(C)(C)C)=C1)C(C)(C)C,1.566561093,G2,A,mono-constituent,None,Uncharged
A-2556,"InChI=1S/C32H66O/c1-3-5-7-9-11-13-15-17-18-20-22-24-26-28-30-32(31-33)29-27-25-23-21-19-16-14-12-10-8-6-4-2/h32-33H,3-31H2,1-2H3",-5.66920434,CCCCCCCCCCCCCCCCC(CO)CCCCCCCCCCCCCC,0,G1,A,mono-constituent,Below LoD Below LoQ,Uncharged
A-2559,"InChI=1S/C41H84N4O2/c1-3-5-7-9-11-13-15-17-19-21-23-25-27-29-31-33-36-42-40(46)44-38-35-39-45-41(47)43-37-34-32-30-28-26-24-22-20-18-16-14-12-10-8-6-4-2/h3-39H2,1-2H3,(H2,42,44,46)(H2,43,45,47)",-5.822918943,CCCCCCCCCCCCCCCCCCNC(=O)NCCCNC(=O)NCCCCCCCCCCCCCCCCCC,0,G1,A,mono-constituent,Prediction Estimation,Uncharged
A-2561,"InChI=1S/C14H24N2O2S/c1-3-5-6-12(4-2)11-16-19(17,18)14-9-7-13(15)8-10-14/h7-10,12,16H,3-6,11,15H2,1-2H3",-5.453967767,CCCCC(CC)CNS(=O)(=O)C1=CC=C(N)C=C1,0,G1,A,mono-constituent,None,Uncharged
A-2563,"InChI=1S/C26H26N2O2S/c1-25(2,3)15-7-9-19-17(13-15)27-23(29-19)21-11-12-22(31-21)24-28-18-14-16(26(4,5)6)8-10-20(18)30-24/h7-14H,1-6H3",-5.634046793,CC(C)(C)C1=CC=C2OC(=NC2=C1)C1=CC=C(S1)C1=NC2=CC(=CC=C2O1)C(C)(C)C,1,G2,A,mono-constituent,Below LoD Below LoQ,Uncharged
A-2564,"InChI=1S/C10H20O2.C8H16O2.C6H10O4.C6H14O3.C6H12O2/c1-2-3-4-5-6-7-8-9-10(11)12;1-2-3-4-5-6-7-8(9)10;7-5(8)3-1-2-4-6(9)10;1-2-6(3-7,4-8)5-9;1-2-3-4-5-6(7)8/h2-9H2,1H3,(H,11,12);2-7H2,1H3,(H,9,10);1-4H2,(H,7,8)(H,9,10);7-9H,2-5H2,1H3;2-5H2,1H3,(H,7,8)",-5.853064556,CCCCCCCCCC([O-])=O,0,G1,A,mono-constituent,Multi-constituent Substances,Negative
A-2565,InChI=1S/C24H8O6/c25-21-13-5-1-9-10-2-6-15-20-16(24(28)30-23(15)27)8-4-12(18(10)20)11-3-7-14(22(26)29-21)19(13)17(9)11/h1-8H,-5.593642663,O=C1OC(=O)C2=C3C1=CC=C1C4=C5C(=CC=C6C(=O)OC(=O)C(C=C4)=C56)C(C=C2)=C31,0,G1,A,mono-constituent,None,Uncharged
A-2566,"InChI=1S/C18H12N3O9PS/c22-19(23)13-1-7-16(8-2-13)28-31(32,29-17-9-3-14(4-10-17)20(24)25)30-18-11-5-15(6-12-18)21(26)27/h1-12H",-5.678834198,[O-][N+](=O)C1=CC=C(OP(=S)(OC2=CC=C(C=C2)[N+]([O-])=O)OC2=CC=C(C=C2)[N+]([O-])=O)C=C1,0,G1,A,mono-constituent,None,PureChargeSeparation
A-2567,"InChI=1S/C18H13ClN2O6S.Ba/c1-9-6-15(28(25,26)27)14(8-13(9)19)20-21-16-11-5-3-2-4-10(11)7-12(17(16)22)18(23)24;/h2-8,20H,1H3,(H,23,24)(H,25,26,27);/q;+2/p-2/b21-16+;",-5.745185694,CC1=CC(=C(C=C1Cl)N=NC1=C(O)C(=CC2=CC=CC=C12)C([O-])=O)S([O-])(=O)=O,0.801029996,G2,A,mono-constituent,None,Negative
A-2568,"InChI=1S/2C20H14N2O4S.Ba/c2*23-18-12-10-13-5-1-3-7-15(13)19(18)22-21-17-11-9-14-6-2-4-8-16(14)20(17)27(24,25)26;/h2*1-12,21H,(H,24,25,26);/q;;+2/p-2/b2*22-19-;",-5.950428144,[O-]S(=O)(=O)C1=C(NN=C2C(=O)C=CC3=CC=CC=C23)C=CC2=CC=CC=C12,0.759675276,G4,A,mono-constituent,None,Negative
A-2569,"InChI=1S/C34H58O4/c1-29(2)23-17-13-9-5-7-11-15-21-27-37-33(35)31-25-19-20-26-32(31)34(36)38-28-22-16-12-8-6-10-14-18-24-30(3)4/h19-20,25-26,29-30H,5-18,21-24,27-28H2,1-4H3",-5.724958732,CC(C)CCCCCCCCCCOC(=O)C1=CC=CC=C1C(=O)OCCCCCCCCCCC(C)C,0,G1,A,UVCB,None,Uncharged
A-2570,"InChI=1S/2C20H14N2O4S.Ca/c2*23-18-12-10-13-5-1-3-7-15(13)19(18)22-21-17-11-9-14-6-2-4-8-16(14)20(17)27(24,25)26;/h2*1-12,21H,(H,24,25,26);/q;;+2/p-2/b2*22-19-;",-5.90030157,[O-]S(=O)(=O)C1=C(NN=C2C(=O)C=CC3=CC=CC=C23)C=CC2=CC=CC=C12,0,G1,A,mono-constituent,None,Negative
A-2571,InChI=1S/2In.3O/q2*+3;3*-2,-5.443471086,[In+3],0,G1,A,None,None,Uncharged
A-2572,"InChI=1S/C32H62O4/c1-29(2)23-17-13-9-5-7-11-15-21-27-35-31(33)25-19-20-26-32(34)36-28-22-16-12-8-6-10-14-18-24-30(3)4/h29-30H,5-28H2,1-4H3",-5.708288297,CC(C)CCCCCCCCCCOC(=O)CCCCC(=O)OCCCCCCCCCCC(C)C,1.577544714,G4,A,UVCB,None,Uncharged
A-2573,"InChI=1S/C22H46O/c1-2-3-4-5-6-7-8-9-10-11-12-13-14-15-16-17-18-19-20-21-22-23/h23H,2-22H2,1H3",-5.514028148,CCCCCCCCCCCCCCCCCCCCCCO,0,G1,A,mono-constituent,None,Uncharged
A-2574,"InChI=1S/C30H58O4S/c1-3-5-7-9-11-13-15-17-19-21-25-33-29(31)23-27-35-28-24-30(32)34-26-22-20-18-16-14-12-10-8-6-4-2/h3-28H2,1-2H3",-5.711686622,CCCCCCCCCCCCOC(=O)CCSCCC(=O)OCCCCCCCCCCCC,0,G1,A,mono-constituent,Prediction Estimation,Uncharged
A-2575,"InChI=1S/C17H18N2O2/c1-3-21-17(20)14-9-11-15(12-10-14)18-13-19(2)16-7-5-4-6-8-16/h4-13H,3H2,1-2H3",-5.450777025,CCOC(=O)C1=CC=C(C=C1)N=CN(C)C1=CC=CC=C1,0,G1,A,mono-constituent,None,Uncharged
A-2577,"InChI=1S/C34H66O6/c1-3-5-7-9-11-13-15-17-19-21-23-25-27-29-31-37-33(35)39-40-34(36)38-32-30-28-26-24-22-20-18-16-14-12-10-8-6-4-2/h3-32H2,1-2H3",-5.756557,CCCCCCCCCCCCCCCCOC(=O)OOC(=O)OCCCCCCCCCCCCCCCC,0,G1,A,mono-constituent,Below LoD Below LoQ,Uncharged
A-2578,"InChI=1S/C19H42O3Si/c1-5-6-7-8-9-10-11-12-13-14-15-16-17-18-19-23(20-2,21-3)22-4/h5-19H2,1-4H3",-5.539863641,CCCCCCCCCCCCCCCC[Si](OC)(OC)OC,0,G1,A,mono-constituent,None,Uncharged
A-2579,"InChI=1S/C6H12O.C5H10O.C3H4O2/c1-2-3-4-5-6-7;1-2-3-4-5-6;4-2-1-3-5/h6H,2-5H2,1H3;5H,2-4H2,1H3;2-3H,1H2",-5.412221914,CCCCCC=O,0,G1,A,None,Multi-constituent Substances,Uncharged
A-2580,InChI=1S/Fe.K.2O/q+3;+1;2*-2,-5.103601915,O.O.[K+].[Fe+3],0,G1,A,mono-constituent,Multi-constituent Substances,Positive
A-2581,InChI=1S/K.Li.H2O.Ti/h;;1H2;,-5.048911582,[Ti],0,G1,A,None,None,Uncharged
A-2582,"InChI=1S/C20H42O/c1-2-3-4-5-6-7-8-9-10-11-12-13-14-15-16-17-18-19-20-21/h21H,2-20H2,1H3",-5.475024349,CCCCCCCCCCCCCCCCCCCCO,0,G1,A,mono-constituent,None,Uncharged
A-2583,"InChI=1S/Mn.H3N.H4O7P2/c;;1-8(2,3)7-9(4,5)6/h;1H3;(H2,1,2,3)(H2,4,5,6)/q+3;;/p-3",-5.392552751,OP([O-])(=O)OP([O-])([O-])=O,0,G1,A,mono-constituent,Non Valid pH,Negative
A-2584,"InChI=1S/C18H38O/c1-2-3-4-5-6-7-8-9-10-11-12-13-14-15-16-17-18-19/h19H,2-18H2,1H3",-5.432168875,CCCCCCCCCCCCCCCCCCO,1.479303657,G2,A,mono-constituent,Non Valid pH,Uncharged
A-2586,"InChI=1S/C15H30O2/c1-4-5-6-7-8-9-10-11-12-13-15(16)17-14(2)3/h14H,4-13H2,1-3H3",-5.38453799,CCCCCCCCCCCC(=O)OC(C)C,0,G1,A,mono-constituent,Non Valid pH,Uncharged
A-2587,"InChI=1S/C24H50O/c1-2-3-4-5-6-7-8-9-10-11-12-13-14-15-16-17-18-19-20-21-22-23-24-25/h25H,2-24H2,1H3",-5.549815883,CCCCCCCCCCCCCCCCCCCCCCCCO,0,G1,A,mono-constituent,None,Uncharged
A-2589,"InChI=1S/C11H22/c1-3-5-7-9-11-10-8-6-4-2/h5,7H,3-4,6,8-11H2,1-2H3/b7-5+",-5.188357482,CCCCCCCC=CCC,0.039590623,G3,A,UVCB,None,Uncharged
A-2590,"InChI=1S/C14H26O2/c1-3-5-6-7-8-9-10-11-12-13-14(15)16-4-2/h4H,2-3,5-13H2,1H3",-5.354799685,CCCCCCCCCCCC(=O)OC=C,0,G1,A,mono-constituent,None,Uncharged
A-2591,"InChI=1S/2C9H19NS2.Zn/c2*1-3-5-7-10(9(11)12)8-6-4-2;/h2*3-8H2,1-2H3,(H,11,12);/q;;+2/p-2",-5.675923082,CCCCN(CCCC)C([S-])=S,0,G1,A,mono-constituent,None,Negative
A-2592,"InChI=1S/2C18H16O6.C17H12O5.3C17H16O4.C16H12O4.3C16H14O4.C12H12O6.C11H14O4.C11H12O4.3C10H10O4.C9H8O4.C9H10O3.C9H8O3.C9H10O2.2C8H8O2.C8H10.C7H6O2/c1-22-16(19)12-6-4-11(5-7-12)15-10-13(17(20)23-2)8-9-14(15)18(21)24-3;1-22-16(19)13-5-3-12(4-6-13)11-24-18(21)15-9-7-14(8-10-15)17(20)23-2;1-21-16(19)9-4-6-12-13(7-9)11-5-3-10(17(20)22-2)8-14(11)15(12)18;1-11-4-9-14(17(19)21-3)15(10-11)12-5-7-13(8-6-12)16(18)20-2;1-12-3-7-15(8-4-12)17(19)21-11-13-5-9-14(10-6-13)16(18)20-2;1-12-3-5-13(6-4-12)11-21-17(19)15-9-7-14(8-10-15)16(18)20-2;1-9-7-8-12(15(17)19-2)14-13(9)10-5-3-4-6-11(10)16(18)20-14;1-19-15(17)13-7-3-11(4-8-13)12-5-9-14(10-6-12)16(18)20-2;1-19-15(17)12-8-6-11(7-9-12)13-4-3-5-14(10-13)16(18)20-2;1-19-15(17)12-9-7-11(8-10-12)13-5-3-4-6-14(13)16(18)20-2;1-16-10(13)7-4-5-8(11(14)17-2)9(6-7)12(15)18-3;1-13-10(12)8-4-6-9(7-5-8)11(14-2)15-3;1-7-4-5-8(10(12)14-2)9(6-7)11(13)15-3;1-13-9(11)7-3-5-8(6-4-7)10(12)14-2;1-13-9(11)7-4-3-5-8(6-7)10(12)14-2;1-13-9(11)7-5-3-4-6-8(7)10(12)14-2;1-13-9(12)7-4-2-6(3-5-7)8(10)11;2*1-12-9(11)8-4-2-7(6-10)3-5-8;1-7-3-5-8(6-4-7)9(10)11-2;1-6-2-4-7(5-3-6)8(9)10;1-10-8(9)7-5-3-2-4-6-7;1-7-3-5-8(2)6-4-7;8-7(9)6-4-2-1-3-5-6/h4-10H,1-3H3;3-10H,11H2,1-2H3;3-8H,1-2H3;4-10H,1-3H3;2*3-10H,11H2,1-2H3;3-8H,1-2H3;3*3-10H,1-2H3;4-6H,1-3H3;4-7,11H,1-3H3;4-6H,1-3H3;3*3-6H,1-2H3;2-5H,1H3,(H,10,11);2-5,10H,6H2,1H3;2-6H,1H3;3-6H,1-2H3;2-5H,1H3,(H,9,10);2-6H,1H3;3-6H,1-2H3;1-5H,(H,8,9)",-6.731677773,COC(=O)C1=CC=C(COC(=O)C2=CC=C(C=C2)C(=O)OC)C=C1,0,G1,A,None,Multi-constituent Substances,Uncharged
A-2593,"InChI=1S/C32H62N4O6/c1-5-9-15-27(7-3)29-17-23-41-35(29)21-25-39-31(37)33-19-13-11-12-14-20-34-32(38)40-26-22-36-30(18-24-42-36)28(8-4)16-10-6-2/h27-30H,5-26H2,1-4H3,(H,33,37)(H,34,38)",-5.790560824,CCCCC(CC)C1CCON1CCOC(=O)NCCCCCCNC(=O)OCCN1OCCC1C(CC)CCCC,0,G1,A,None,None,Uncharged
A-2594,"InChI=1S/C20H23N3O3/c1-20(2,3)14-11-13(9-10-18(24)26-4)12-17(19(14)25)23-21-15-7-5-6-8-16(15)22-23/h5-8,11-12,25H,9-10H2,1-4H3",-6.849323576,COC(=O)CCC1=CC(N2N=C3C=CC=CC3=N2)=C(O)C(=C1)C(C)(C)C,0,G1,A,mono-constituent,None,Uncharged
A-2595,"InChI=1S/C51H88N4O2/c1-3-5-7-9-11-13-15-17-19-21-23-25-27-29-31-33-43-52-50(56)54-48-39-35-46(36-40-48)45-47-37-41-49(42-38-47)55-51(57)53-44-34-32-30-28-26-24-22-20-18-16-14-12-10-8-6-4-2/h35-42H,3-34,43-45H2,1-2H3,(H2,52,54,56)(H2,53,55,57)",-5.942994641,CCCCCCCCCCCCCCCCCCNC(=O)NC1=CC=C(CC2=CC=C(NC(=O)NCCCCCCCCCCCCCCCCCC)C=C2)C=C1,0,G1,A,None,None,Uncharged
A-2596,"InChI=1S/C31H52O3/c1-21(2)13-10-14-22(3)15-11-16-23(4)17-12-19-31(9)20-18-28-26(7)29(33-27(8)32)24(5)25(6)30(28)34-31/h21-23H,10-20H2,1-9H3/t22-,23-,31-/m1/s1",-5.771545225,CC(C)CCCC(C)CCCC(C)CCCC1(C)CCC2=C(C)C(OC(C)=O)=C(C)C(C)=C2O1,0,G1,A,mono-constituent,None,Uncharged
A-2597,"InChI=1S/C8H14I2/c9-5-7-1-2-8(6-10)4-3-7/h7-8H,1-6H2",-5.748197572,ICC1CCC(CI)CC1,0,G1,A,mono-constituent,Below LoD Below LoQ,Uncharged
A-2598,"InChI=1S/C20H34O4/c1-17(2,3)21-23-19(7,8)15-11-13-16(14-12-15)20(9,10)24-22-18(4,5)6/h11-14H,1-10H3",-5.737151587,CC(C)(C)OOC(C)(C)C1=CC=C(C=C1)C(C)(C)OOC(C)(C)C,0.595165849,G2,A,mono-constituent,None,Uncharged
A-2599,InChI=1S/Al.H2O.O/h;1H2;/q+3;;-2/p-1,-5.025247952,O,0,G1,A,None,None,Uncharged
A-2601,"InChI=1S/C36H74S2/c1-3-5-7-9-11-13-15-17-19-21-23-25-27-29-31-33-35-37-38-36-34-32-30-28-26-24-22-20-18-16-14-12-10-8-6-4-2/h3-36H2,1-2H3",-6.057758885,CCCCCCCCCCCCCCCCCCSSCCCCCCCCCCCCCCCCCC,0,G1,A,mono-constituent,None,Uncharged
A-2602,"InChI=1S/C24H48O2/c1-3-5-7-9-11-13-14-16-18-20-22-23(24(25)26)21-19-17-15-12-10-8-6-4-2/h23H,3-22H2,1-2H3,(H,25,26)",-5.867639522,CCCCCCCCCCCCC(CCCCCCCCCC)C([O-])=O,0,G1,A,mono-constituent,None,Negative
A-2604,InChI=1S/Zr,-5.35804912,[Zr],2.888526172,G4,A,mono-constituent,None,Uncharged
A-2605,"InChI=1S/C10H30O3Si4/c1-14(2,3)11-17(10,12-15(4,5)6)13-16(7,8)9/h1-10H3",-5.936026172,C[Si](C)(C)O[Si](C)(O[Si](C)(C)C)O[Si](C)(C)C,0,G1,A,mono-constituent,None,Uncharged
A-2606,"InChI=1S/C28H40N2O3/c1-4-33-26-17-13-12-16-25(26)30-28(32)27(31)29-24-20-18-23(19-21-24)15-11-9-7-5-6-8-10-14-22(2)3/h12-13,16-22H,4-11,14-15H2,1-3H3,(H,29,31)(H,30,32)",-6.09944947,CCOC1=CC=CC=C1NC(=O)C(=O)NC1=CC=C(CCCCCCCCCC(C)C)C=C1,0,G1,A,mono-constituent,Below LoD Below LoQ,Uncharged
A-2607,"InChI=1S/N4Si3/c1-5-2-6(1)3(5)7(1,2)4(5)6",-5.669893078,N12[Si]34N5[Si]11N3[Si]25N41,0,G1,A,mono-constituent,None,Uncharged
A-2608,"InChI=1S/C17H34O2/c1-7-9-10-15(8-2)13-19-16(18)11-14(3)12-17(4,5)6/h14-15H,7-13H2,1-6H3",-5.954976972,CCCCC(CC)COC(=O)CC(C)CC(C)(C)C,1.238560627,G2,A,mono-constituent,None,Uncharged
A-2609,InChI=1S/Ca.3O.Ti/q+2;3*-2;+4,-5.6562324,O,0,G1,A,None,None,Uncharged
A-2610,"InChI=1S/C26H35N3O3/c1-6-18(2)10-9-15-32-24(30)14-13-19-16-20(26(3,4)5)25(31)23(17-19)29-27-21-11-7-8-12-22(21)28-29/h7-8,11-12,16-18,31H,6,9-10,13-15H2,1-5H3",-6.163940179,CCC(C)CCCOC(=O)CCC1=CC(N2N=C3C=CC=CC3=N2)=C(O)C(=C1)C(C)(C)C,0.610924375,G2,A,None,None,Uncharged
A-2613,"InChI=1S/2Ca.H4O7P2/c;;1-8(2,3)7-9(4,5)6/h;;(H2,1,2,3)(H2,4,5,6)/q2*+2;/p-4",-5.998459357,OP([O-])(=O)OP([O-])([O-])=O,0,G1,A,mono-constituent,Cosolvent Buffer,Negative
A-2614,"InChI=1S/C21H15NO6S/c1-29(26,27)28-13-8-6-12(7-9-13)22-16-10-11-17(23)19-18(16)20(24)14-4-2-3-5-15(14)21(19)25/h2-11,22-23H,1H3",-6.214227985,CS(=O)(=O)OC1=CC=C(NC2=CC=C(O)C3=C2C(=O)C2=CC=CC=C2C3=O)C=C1,0,G1,A,mono-constituent,None,Uncharged
A-2615,"InChI=1S/C28H42O2S.C4H11N.Ni/c1-25(2,3)17-27(7,8)19-11-13-21(29)23(15-19)31-24-16-20(12-14-22(24)30)28(9,10)18-26(4,5)6;1-2-3-4-5;/h11-16,29-30H,17-18H2,1-10H3;2-5H2,1H3;/q;;+2/p-2",-6.446040594,[Ni++].CCCC[NH3+].CC(C)(C)CC(C)(C)C1=CC=C(O)C(SC2=CC(=CC=C2O)C(C)(C)CC(C)(C)C)=C1,0,G1,A,mono-constituent,Cosolvent Buffer,Positive
A-2617,"InChI=1S/C24H26O2/c1-17(21-6-10-23(25)11-7-21)14-19-4-3-5-20(16-19)15-18(2)22-8-12-24(26)13-9-22/h3-13,16-18,25-26H,14-15H2,1-2H3",-6.23863564,CC(CC1=CC(CC(C)C2=CC=C(O)C=C2)=CC=C1)C1=CC=C(O)C=C1,0,G1,A,None,None,Uncharged
A-2618,"InChI=1S/C38H32N2/c1-29-11-9-17-37(27-29)39(33-13-5-3-6-14-33)35-23-19-31(20-24-35)32-21-25-36(26-22-32)40(34-15-7-4-8-16-34)38-18-10-12-30(2)28-38/h3-28H,1-2H3",-6.41219838,CC1=CC(=CC=C1)N(C1=CC=CC=C1)C1=CC=C(C=C1)C1=CC=C(C=C1)N(C1=CC=CC=C1)C1=CC(C)=CC=C1,0,G1,A,None,None,Uncharged
A-2619,"InChI=1S/C16H16N2S4/c1-17(13-9-5-3-6-10-13)15(19)21-22-16(20)18(2)14-11-7-4-8-12-14/h3-12H,1-2H3",-6.260769992,CN(C(=S)SSC(=S)N(C)C1=CC=CC=C1)C1=CC=CC=C1,2.150514998,G2,A,mono-constituent,None,Uncharged
A-2620,"InChI=1S/C19H19N7O5/c1-4-24(5-2)14-6-7-16(17(9-14)21-12(3)27)22-23-19-13(11-20)8-15(25(28)29)10-18(19)26(30)31/h6-10H,4-5H2,1-3H3,(H,21,27)",-6.327772594,CCN(CC)C1=CC=C(N=NC2=C(C=C(C=C2[N+]([O-])=O)[N+]([O-])=O)C#N)C(NC(C)=O)=C1,0,G1,A,mono-constituent,None,PureChargeSeparation
A-2621,"InChI=1S/C10H12.C7H8O.C4H8/c1-2-9-7-4-5-8(6-7)10(9)3-1;1-6-2-4-7(8)5-3-6;1-4(2)3/h1-2,4-5,7-10H,3,6H2;2-5,8H,1H3;1H2,2-3H3",-6.170927319,C1C=CC2C3CC(C=C3)C12,0.650514998,G2,A,UVCB,Multi-constituent Substances,Uncharged
A-2622,"InChI=1S/C26H50O10/c1-2-3-4-5-6-7-8-9-10-11-24(30)34-19-18-31-20-22(32-15-12-27)26-25(35-17-14-29)23(21-36-26)33-16-13-28/h22-23,25-29H,2-21H2,1H3",-6.417202563,CCCCCCCCCCCC(=O)OCCOCC(OCCO)C1OCC(OCCO)C1OCCO,0,G1,A,UVCB,Multi-constituent Substances,Uncharged
A-2623,"InChI=1S/C18H38O/c1-18(2)16-14-12-10-8-6-4-3-5-7-9-11-13-15-17-19/h18-19H,3-17H2,1-2H3",-6.256077616,CC(C)CCCCCCCCCCCCCCCO,0,G1,A,UVCB,None,Uncharged
A-2624,"InChI=1S/C19H34O6/c1-4-5-6-7-8-9-10-11-12-13-19(22)24-15-18(25-17(3)21)14-23-16(2)20/h18H,4-15H2,1-3H3",-6.378367614,CCCCCCCCCCCC(=O)OCC(COC(C)=O)OC(C)=O,0,G1,A,UVCB,Cosolvent Buffer,Uncharged
A-2625,"InChI=1S/C34H64O4/c1-3-5-7-9-11-13-15-17-19-21-23-25-27-31-37-33(35)29-30-34(36)38-32-28-26-24-22-20-18-16-14-12-10-8-6-4-2/h29-30H,3-28,31-32H2,1-2H3/b30-29+",-6.553787585,CCCCCCCCCCCCCCCOC(=O)C=CC(=O)OCCCCCCCCCCCCCCC,0,G1,A,UVCB,Multi-constituent Substances,Uncharged
A-2626,"InChI=1S/C20H36O4/c1-3-5-7-9-11-13-17-23-19(21)15-16-20(22)24-18-14-12-10-8-6-4-2/h15-16H,3-14,17-18H2,1-2H3/b16-15+",-6.356030959,CCCCCCCCOC(=O)C=CC(=O)OCCCCCCCC,0,G1,A,None,None,Uncharged
A-2627,"InChI=1S/C21H12N3O6PS/c25-13-22-16-1-7-19(8-2-16)28-31(32,29-20-9-3-17(4-10-20)23-14-26)30-21-11-5-18(6-12-21)24-15-27/h1-12H",-6.491719256,O=C=NC1=CC=C(OP(=S)(OC2=CC=C(C=C2)N=C=O)OC2=CC=C(C=C2)N=C=O)C=C1,0,G1,A,mono-constituent,None,Uncharged
A-2628,"InChI=1S/C24H44O4/c1-21(2)15-11-7-5-9-13-19-27-23(25)17-18-24(26)28-20-14-10-6-8-12-16-22(3)4/h17-18,21-22H,5-16,19-20H2,1-4H3/b18-17+",-6.422274591,CC(C)CCCCCCCOC(=O)C=CC(=O)OCCCCCCCC(C)C,0,G1,A,None,None,Uncharged
A-2629,"InChI=1S/C28H52O4/c1-3-5-7-9-11-13-15-17-19-21-25-31-27(29)23-24-28(30)32-26-22-20-18-16-14-12-10-8-6-4-2/h23-24H,3-22,25-26H2,1-2H3/b24-23+",-6.479738422,CCCCCCCCCCCCOC(=O)C=CC(=O)OCCCCCCCCCCCC,0,G1,A,mono-constituent,None,Uncharged
A-2630,"InChI=1S/C21H40O2/c1-4-5-6-7-8-9-10-11-12-13-14-15-16-17-18-19-21(22)23-20(2)3/h11-12,20H,4-10,13-19H2,1-3H3/b12-11-",-6.335189016,CCCCCCCCC=CCCCCCCCC(=O)OC(C)C,0,G1,A,UVCB,None,Uncharged
A-2631,"InChI=1S/C10H20O2.C8H16O2.C7H14O2.C5H12O4/c1-2-3-4-5-6-7-8-9-10(11)12;1-2-3-4-5-6-7-8(9)10;1-2-3-4-5-6-7(8)9;6-1-5(2-7,3-8)4-9/h2-9H2,1H3,(H,11,12);2-7H2,1H3,(H,9,10);2-6H2,1H3,(H,8,9);6-9H,1-4H2",-6.61940343,CCCCCCCCCC([O-])=O,0,G1,A,UVCB,Multi-constituent Substances,Negative
A-2632,"InChI=1S/C43H22N6O13S3/c44-47-31-19-15-24-27(39(31)51)9-4-12-35(24)63(54,55)60-34-22-18-30(38(50)23-7-2-1-3-8-23)42(61-64(56,57)36-13-5-10-28-25(36)16-20-32(48-45)40(28)52)43(34)62-65(58,59)37-14-6-11-29-26(37)17-21-33(49-46)41(29)53/h1-22H",-6.820895007,O=C(C1=CC=CC=C1)C1=CC=C(OS(=O)(=O)C2=CC=CC3=C2C=CC([N+]#N)C3=O)C(OS(=O)(=O)C2=CC=CC3=C2C=CC([N+]#N)C3=O)=C1OS(=O)(=O)C1=CC=CC2=C1C=CC([N+]#N)C2=O,0,G1,A,mono-constituent,None,Positive
A-2633,"InChI=1S/C14H32O3Si/c1-5-9-10-11-12-13-14-18(15-6-2,16-7-3)17-8-4/h5-14H2,1-4H3",-6.327740788,CCCCCCCC[Si](OCC)(OCC)OCC,0,G1,A,mono-constituent,Unstable,Uncharged
A-2635,"InChI=1S/C38H76N2O4/c1-3-5-7-21-27-35(41)29-23-17-13-9-11-15-19-25-31-37(43)39-33-34-40-38(44)32-26-20-16-12-10-14-18-24-30-36(42)28-22-8-6-4-2/h35-36,41-42H,3-34H2,1-2H3,(H,39,43)(H,40,44)",-6.735207192,CCCCCCC(O)CCCCCCCCCCC(=O)NCCNC(=O)CCCCCCCCCCC(O)CCCCCC,0,G1,A,mono-constituent,None,Uncharged
A-2636,InChI=1S/C22H12N2O4/c25-21-15-5-1-3-7-17(15)23-19(27-21)13-9-11-14(12-10-13)20-24-18-8-4-2-6-16(18)22(26)28-20/h1-12H,-6.517040294,O=C1OC(=NC2=CC=CC=C12)C1=CC=C(C=C1)C1=NC2=CC=CC=C2C(=O)O1,0,G1,A,mono-constituent,None,Uncharged
A-2637,"InChI=1S/C22H43NO/c1-2-3-4-5-6-7-8-9-10-11-12-13-14-15-16-17-18-19-20-21-22(23)24/h9-10H,2-8,11-21H2,1H3,(H2,23,24)/b10-9-",-6.528392147,CCCCCCCCC=CCCCCCCCCCCCC(N)=O,1.065971819,G2,A,mono-constituent,None,Uncharged