ID,InChI,Solubility,SMILEScurated,SD,Group,Dataset,Composition,Error,Charge
A-2088,"InChI=1S/C17H7F25O2.C15H7F21O2.C13H7F17O2.C11H7F13O2/c1-2-5(43)44-4-3-6(18,19)7(20,21)8(22,23)9(24,25)10(26,27)11(28,29)12(30,31)13(32,33)14(34,35)15(36,37)16(38,39)17(40,41)42;1-2-5(37)38-4-3-6(16,17)7(18,19)8(20,21)9(22,23)10(24,25)11(26,27)12(28,29)13(30,31)14(32,33)15(34,35)36;1-2-5(31)32-4-3-6(14,15)7(16,17)8(18,19)9(20,21)10(22,23)11(24,25)12(26,27)13(28,29)30;1-2-5(25)26-4-3-6(12,13)7(14,15)8(16,17)9(18,19)10(20,21)11(22,23)24/h2H,1,3-4H2;2H,1,3-4H2;2H,1,3-4H2;2H,1,3-4H2",-6.481477027,FC(F)(F)C(F)(F)C(F)(F)C(F)(F)C(F)(F)C(F)(F)C(F)(F)C(F)(F)C(F)(F)C(F)(F)C(F)(F)C(F)(F)CCOC(=O)C=C,0,G1,A,None,Multi-constituent Substances,Uncharged
A-2089,"InChI=1S/C18H30O/c1-7-12(4)15-10-16(13(5)8-2)18(19)17(11-15)14(6)9-3/h10-14,19H,7-9H2,1-6H3",-5.549793345,CCC(C)C1=CC(C(C)CC)=C(O)C(=C1)C(C)CC,0.585130858,G2,A,mono-constituent,None,Uncharged
A-2091,"InChI=1S/C16H13N/c1-2-8-15(9-3-1)17-16-11-10-13-6-4-5-7-14(13)12-16/h1-12,17H",-5.495914846,N(C1=CC=CC=C1)C1=CC2=CC=CC=C2C=C1,0,G1,A,mono-constituent,None,Uncharged
A-2093,InChI=1S/O.Y,-5.175698148,O=[Y],0,G1,A,None,None,Uncharged
A-2094,InChI=1S/3O.2Y/q3*-2;2*+3,-5.508643208,[Y+3],0,G1,A,mono-constituent,None,Uncharged
A-2095,"InChI=1S/C14H26O/c1-12(2)7-5-8-13(3)9-6-10-14(4)11-15/h7,11,13-14H,5-6,8-10H2,1-4H3",-5.496890424,CC(CCCC(C)C=O)CCC=C(C)C,0,G1,A,mono-constituent,None,Uncharged
A-2096,"InChI=1S/C19H26N2/c1-15(2)9-10-16(3)20-18-11-13-19(14-12-18)21-17-7-5-4-6-8-17/h4-8,11-16,20-21H,9-10H2,1-3H3",-5.624837561,CC(C)CCC(C)NC1=CC=C(NC2=CC=CC=C2)C=C1,0,G1,A,mono-constituent,None,Uncharged
A-2097,"InChI=1S/C16H28O/c17-16-14-12-10-8-6-4-2-1-3-5-7-9-11-13-15-16/h6,8H,1-5,7,9-15H2/b8-6-",-5.560732278,O=C1CCCCCCCCCCC=CCCC1,0.24405832,G3,A,multi-constituent,None,Uncharged
A-2098,"InChI=1S/C20H27NO2/c1-19-9-7-16-15-6-4-14(23-2)11-13(15)3-5-17(16)18(19)8-10-20(19,22)12-21/h4,16-18,22H,3,5-11H2,1-2H3",-5.683242448,COC1=CCC2=C(CCC3C4CCC(O)(C#N)C4(C)CCC23)C1,0,G1,A,None,None,Uncharged
A-2099,"InChI=1S/C18H30O2/c1-15(2)8-5-9-16(3)13(15)7-11-18-12-19-17(4,20-18)10-6-14(16)18/h13-14H,5-12H2,1-4H3",-5.645384837,CC12CCC3C(CO1)(CCC1C(C)(C)CCCC31C)O2,0,G1,A,multi-constituent,None,Uncharged
A-2100,"InChI=1S/C10H20/c1-8(2)10-6-4-9(3)5-7-10/h8-10H,4-7H2,1-3H3",-5.354573108,CC(C)C1CCC(C)CC1,0.172613446,G3,A,mono-constituent,None,Uncharged
A-2101,"InChI=1S/2C17H13ClN2O4S.Ba/c2*1-10-8-14(16(9-13(10)18)25(22,23)24)19-20-17-12-5-3-2-4-11(12)6-7-15(17)21;/h2*2-9,19H,1H3,(H,22,23,24);/q;;+2/p-2/b2*20-17-;",-6.156487599,CC1=CC(NN=C2C(=O)C=CC3=CC=CC=C23)=C(C=C1Cl)S([O-])(=O)=O,0.907126193,G4,A,mono-constituent,None,Negative
A-2104,"InChI=1S/C18H22ClNO3/c1-3-4-5-7-13(2)23-17(21)12-22-16-10-9-15(19)14-8-6-11-20-18(14)16/h6,8-11,13H,3-5,7,12H2,1-2H3",-5.747969532,CCCCCC(C)OC(=O)COC1=CC=C(Cl)C2=CC=CN=C12,0.085987163,G5,A,mono-constituent,None,Uncharged
A-2106,"InChI=1S/C22H47NO2/c1-2-3-4-5-6-7-8-9-10-11-12-13-14-15-16-17-18-23(19-21-24)20-22-25/h24-25H,2-22H2,1H3",-5.775274192,CCCCCCCCCCCCCCCCCC[NH+](CCO)CCO,0,G1,A,mono-constituent,None,Positive
A-2110,"InChI=1S/C16H28O2/c17-16-14-12-10-8-6-4-2-1-3-5-7-9-11-13-15-18-16/h1,3H,2,4-15H2/b3-1-",-5.629397555,O=C1CCCCCCCC=CCCCCCCO1,0,G1,A,mono-constituent,None,Uncharged
A-2113,"InChI=1S/C15H12Cl2N2O3/c1-22-15(21)10-4-3-9(7-13(10)18)19-14(20)11-6-8(16)2-5-12(11)17/h2-7H,18H2,1H3,(H,19,20)",-5.790064986,COC(=O)C1=CC=C(NC(=O)C2=CC(Cl)=CC=C2Cl)C=C1N,0,G1,A,None,None,Uncharged
A-2115,"InChI=1S/C17H36O4SSi/c1-5-9-10-11-12-14-17(18)22-15-13-16-23(19-6-2,20-7-3)21-8-4/h5-16H2,1-4H3",-5.832680461,CCCCCCCC(=O)SCCC[Si](OCC)(OCC)OCC,1.358996621,G2,A,mono-constituent,Unstable,Uncharged
A-2117,"InChI=1S/C18H14O/c19-18-16(14-8-3-1-4-9-14)12-7-13-17(18)15-10-5-2-6-11-15/h1-13,19H",-5.683910105,OC1=C(C=CC=C1C1=CC=CC=C1)C1=CC=CC=C1,0,G1,A,mono-constituent,None,Uncharged
A-2118,"InChI=1S/C14H15ClO/c1-14(2)8-7-11(13(14)16)9-10-3-5-12(15)6-4-10/h3-6,9H,7-8H2,1-2H3/b11-9+",-5.671591194,CC1(C)CCC(=CC2=CC=C(Cl)C=C2)C1=O,0,G1,A,None,None,Uncharged
A-2119,"InChI=1S/C50H66O8/c1-45(2,3)35-25-31(15-19-39(35)51)49(13,32-16-20-40(52)36(26-32)46(4,5)6)29-43(55)57-23-24-58-44(56)30-50(14,33-17-21-41(53)37(27-33)47(7,8)9)34-18-22-42(54)38(28-34)48(10,11)12/h15-22,25-28,51-54H,23-24,29-30H2,1-14H3",-6.201435362,CC(C)(C)C1=CC(=CC=C1O)C(C)(CC(=O)OCCOC(=O)CC(C)(C1=CC=C(O)C(=C1)C(C)(C)C)C1=CC=C(O)C(=C1)C(C)(C)C)C1=CC=C(O)C(=C1)C(C)(C)C,0,G1,A,mono-constituent,None,Uncharged
A-2122,"InChI=1S/C15H16/c1-12(2)13-8-10-15(11-9-13)14-6-4-3-5-7-14/h3-12H,1-2H3",-5.609857774,CC(C)C1=CC=C(C=C1)C1=CC=CC=C1,0.139142192,G5,A,None,None,Uncharged
A-2126,"InChI=1S/C21H30N2/c1-5-16-10-14(11-17(6-2)20(16)22)9-15-12-18(7-3)21(23)19(8-4)13-15/h10-13H,5-9,22-23H2,1-4H3",-5.848587947,CCC1=CC(CC2=CC(CC)=C(N)C(CC)=C2)=CC(CC)=C1N,0,G1,A,mono-constituent,None,Uncharged
A-2129,"InChI=1S/C25H28O6/c1-5-23(26)30-17-15-28-21-11-7-19(8-12-21)25(3,4)20-9-13-22(14-10-20)29-16-18-31-24(27)6-2/h5-14H,1-2,15-18H2,3-4H3",-5.999481603,CC(C)(C1=CC=C(OCCOC(=O)C=C)C=C1)C1=CC=C(OCCOC(=O)C=C)C=C1,0,G1,A,None,None,Uncharged
A-2131,"InChI=1S/C28H27N/c1-21(23-9-5-3-6-10-23)25-13-17-27(18-14-25)29-28-19-15-26(16-20-28)22(2)24-11-7-4-8-12-24/h3-22,29H,1-2H3",-5.964168762,CC(C1=CC=CC=C1)C1=CC=C(NC2=CC=C(C=C2)C(C)C2=CC=CC=C2)C=C1,0,G1,A,None,None,Uncharged
A-2132,"InChI=1S/2C74H150.C14H10.C12H10.C11H16/c1-7-13-19-20-21-22-23-24-25-26-27-28-29-30-31-32-33-34-35-36-37-38-39-40-41-42-43-44-46-49-53-56-59-63-71-74(67-17-11-5,68-18-12-6)72-64-60-57-54-51-48-45-47-50-52-55-58-62-70-73(65-15-9-3,66-16-10-4)69-61-14-8-2;1-3-5-7-9-11-13-15-17-19-21-23-25-27-29-31-33-35-37-39-41-43-45-47-49-51-53-55-57-59-61-63-65-67-69-71-73-74-72-70-68-66-64-62-60-58-56-54-52-50-48-46-44-42-40-38-36-34-32-30-28-26-24-22-20-18-16-14-12-10-8-6-4-2;1-2-6-12-10-14-8-4-3-7-13(14)9-11(12)5-1;1-3-7-11(8-4-1)12-9-5-2-6-10-12;1-4-5-11-7-9(2)6-10(3)8-11/h7-72H2,1-6H3;3-74H2,1-2H3;1-10H;1-10H;6-8H,4-5H2,1-3H3",-6.806302611,CCCCCCCCCCCCCCCCCCCCCCCCCCCCCCCCCCCCCCCCCCCCCCCCCCCCCCCCCCCCCCCCCCCCCCCCCC,0.597257171,G2,A,None,Multi-constituent Substances,Uncharged
A-2135,"InChI=1S/C26H54.C23H48.C18H18/c1-5-9-11-13-15-16-17-19-21-25-26(22-7-3,23-8-4)24-20-18-14-12-10-6-2;1-3-5-7-9-11-13-15-17-19-21-23-22-20-18-16-14-12-10-8-6-4-2;1-3-13-5-7-15-12-18-10-14(4-2)6-8-16(18)11-17(15)9-13/h5-25H2,1-4H3;3-23H2,1-2H3;5-12H,3-4H2,1-2H3",-6.364408865,CCCCCCCCCCCC(CCC)(CCC)CCCCCCCC,0.597257171,G2,A,None,Multi-constituent Substances,Uncharged
A-2136,"InChI=1S/C15H22O2/c1-3-5-9-13(4-2)12-17-15(16)14-10-7-6-8-11-14/h6-8,10-11,13H,3-5,9,12H2,1-2H3",-5.767784581,CCCCC(CC)COC(=O)C1=CC=CC=C1,0,G1,A,mono-constituent,None,Uncharged
A-2137,"InChI=1S/C16H22O3/c1-11-8-12(10-16(2,3)9-11)19-15(18)13-6-4-5-7-14(13)17/h4-7,11-12,17H,8-10H2,1-3H3",-5.816819422,CC1CC(CC(C)(C)C1)OC(=O)C1=CC=CC=C1O,0,G1,A,mono-constituent,Non Valid pH,Uncharged
A-2138,"InChI=1S/2C20H42.C14H10/c1-5-9-11-12-13-16-20(8-4)18-14-17-19(7-3)15-10-6-2;1-3-5-7-9-11-13-15-17-19-20-18-16-14-12-10-8-6-4-2;1-2-6-12-10-14-8-4-3-7-13(14)9-11(12)5-1/h19-20H,5-18H2,1-4H3;3-20H2,1-2H3;1-10H",-6.269131018,CCCCCCCCCCCCCCCCCCCC,0.597257171,G2,A,None,Multi-constituent Substances,Uncharged
A-2140,"InChI=1S/C15H10Cl2N2O5/c1-24-15(21)10-4-2-8(6-13(10)19(22)23)14(20)18-12-7-9(16)3-5-11(12)17/h2-7H,1H3,(H,18,20)",-5.965154646,COC(=O)C1=CC=C(C=C1[N+]([O-])=O)C(=O)NC1=CC(Cl)=CC=C1Cl,0,G1,A,mono-constituent,None,PureChargeSeparation
A-2142,"InChI=1S/C15H26O2/c1-6-14(5)15(16)17-11-10-13(4)9-7-8-12(2)3/h6,8,13H,7,9-11H2,1-5H3/b14-6+",-5.791792689,CC=C(C)C(=O)OCCC(C)CCC=C(C)C,0,G1,A,multi-constituent,None,Uncharged
A-2143,"InChI=1S/C12H9F13O2/c1-5(2)6(26)27-4-3-7(13,14)8(15,16)9(17,18)10(19,20)11(21,22)12(23,24)25/h1,3-4H2,2H3",-6.058168846,CC(=C)C(=O)OCCC(F)(F)C(F)(F)C(F)(F)C(F)(F)C(F)(F)C(F)(F)F,0.477121255,G3,A,mono-constituent,None,Uncharged
A-2145,"InChI=1S/C21H14N2O4/c24-18-9-10-19(25)22(18)16-5-1-14(2-6-16)13-15-3-7-17(8-4-15)23-20(26)11-12-21(23)27/h1-12H,13H2",-5.998008544,O=C1C=CC(=O)N1C1=CC=C(CC2=CC=C(C=C2)N2C(=O)C=CC2=O)C=C1,0,G1,A,mono-constituent,None,Uncharged
A-2147,"InChI=1S/C14H30O/c1-2-3-4-5-6-7-8-9-10-11-12-13-14-15/h15H,2-14H2,1H3",-5.787142557,CCCCCCCCCCCCCCO,0.301618495,G5,A,multi-constituent,Multi-constituent Substances,Uncharged
A-2149,"InChI=1S/C27H33O4P/c1-19(2)22-7-13-25(14-8-22)29-32(28,30-26-15-9-23(10-16-26)20(3)4)31-27-17-11-24(12-18-27)21(5)6/h7-21H,1-6H3",-6.137134395,CC(C)C1=CC=C(OP(=O)(OC2=CC=C(C=C2)C(C)C)OC2=CC=C(C=C2)C(C)C)C=C1,0.023076062,G3,A,None,None,Uncharged
A-2150,"InChI=1S/C8H17.3ClH.Sn/c1-3-5-7-8-6-4-2;;;;/h1,3-8H2,2H3;3*1H;/q;;;;+3/p-3",-6.010780355,CCCCCCCC[Sn](Cl)(Cl)Cl,0,G1,A,mono-constituent,None,Uncharged
A-2151,"InChI=1S/C13H16N2S2/c1-2-6-10(7-3-1)15-17-13-14-11-8-4-5-9-12(11)16-13/h4-5,8-10,15H,1-3,6-7H2",-5.91714268,C1CCC(CC1)NSC1=NC2=CC=CC=C2S1,0.123484987,G5,A,mono-constituent,None,Uncharged
A-2152,InChI=1S/Cu,-5.29793824,[Cu],1.278596348,G4,A,mono-constituent,None,Uncharged
A-2154,"InChI=1S/C21H36O.C21H34O.C21H32O.C21H30O/c4*1-2-3-4-5-6-7-8-9-10-11-12-13-14-16-20-17-15-18-21(22)19-20/h15,17-19,22H,2-14,16H2,1H3;8-9,15,17-19,22H,2-7,10-14,16H2,1H3;5-6,8-9,15,17-19,22H,2-4,7,10-14,16H2,1H3;2,5-6,8-9,15,17-19,22H,1,3-4,7,10-14,16H2/b;9-8-;2*6-5-,9-8-",-6.597038826,CCCCCCCCCCCCCCCC1=CC=CC(O)=C1,0.243719876,G3,A,None,Multi-constituent Substances,Uncharged
A-2155,"InChI=1S/C18H20N2O3/c1-3-13-9-5-6-10-14(13)19-17(21)18(22)20-15-11-7-8-12-16(15)23-4-2/h5-12H,3-4H2,1-2H3,(H,19,21)(H,20,22)",-6.017546673,CCOC1=CC=CC=C1NC(=O)C(=O)NC1=CC=CC=C1CC,0,G1,A,mono-constituent,None,Uncharged
A-2157,InChI=1S/C15H28O2/c16-15-13-11-9-7-5-3-1-2-4-6-8-10-12-14-17-15/h1-14H2,-5.903789723,O=C1CCCCCCCCCCCCCCO1,0.724816861,G4,A,mono-constituent,None,Uncharged
A-2158,"InChI=1S/C18H14N2O2/c1-11-3-5-15-13(9-11)19-17(21-15)7-8-18-20-14-10-12(2)4-6-16(14)22-18/h3-10H,1-2H3/b8-7+",-6.000481949,CC1=CC=C2OC(C=CC3=NC4=CC(C)=CC=C4O3)=NC2=C1,0,G1,A,mono-constituent,None,Uncharged
A-2162,InChI=1S/3C6H5N2O2.Al/c3*9-7-8(10)6-4-2-1-3-5-6;/h3*1-5H;/q3*-1;+3,-6.194649109,ON(N=O)C1=CC=CC=C1,0,G1,A,mono-constituent,None,Uncharged
A-2167,"InChI=1S/C16H19N3/c1-3-19(4-2)16-12-10-15(11-13-16)18-17-14-8-6-5-7-9-14/h5-13H,3-4H2,1-2H3",-5.982115268,CCN(CC)C1=CC=C(C=C1)N=NC1=CC=CC=C1,0,G1,A,mono-constituent,None,Uncharged
A-2168,InChI=1S/3FH.Nd/h3*1H;/q;;;+3/p-3,-5.893768237,[Nd+3],1.012817553,G4,A,None,None,Uncharged
A-2169,"InChI=1S/C16H12O2/c1-2-10-7-8-13-14(9-10)16(18)12-6-4-3-5-11(12)15(13)17/h3-9H,2H2,1H3",-5.984242497,CCC1=CC=C2C(=O)C3=CC=CC=C3C(=O)C2=C1,0,G1,A,mono-constituent,None,Uncharged
A-2172,"InChI=1S/C18H20/c1-15(16-10-6-4-7-11-16)14-18(2,3)17-12-8-5-9-13-17/h4-13H,1,14H2,2-3H3",-6.01184247,CC(C)(CC(=C)C1=CC=CC=C1)C1=CC=CC=C1,0,G1,A,mono-constituent,None,Uncharged
A-2173,"InChI=1S/C41H37ClN6O/c1-2-3-23-38-43-39(42)37(29-49)47(38)28-30-24-26-31(27-25-30)35-21-13-14-22-36(35)40-44-46-48(45-40)41(32-15-7-4-8-16-32,33-17-9-5-10-18-33)34-19-11-6-12-20-34/h4-22,24-27,49H,2-3,23,28-29H2,1H3",-6.461251172,CCCCC1=NC(Cl)=C(CO)N1CC1=CC=C(C=C1)C1=CC=CC=C1C1=NN(N=N1)C(C1=CC=CC=C1)(C1=CC=CC=C1)C1=CC=CC=C1,0,G1,A,mono-constituent,None,Uncharged
A-2174,InChI=1S/2Na.3O.Ti/q2*+1;3*-2;+4,-5.805457995,[Ti+4],0,G1,A,mono-constituent,None,Uncharged
A-2175,"InChI=1S/2C18H26O3/c2*1-4-6-7-15(5-2)14-21-18(19)13-10-16-8-11-17(20-3)12-9-16/h2*8-13,15H,4-7,14H2,1-3H3/b2*13-10+/t2*15-/m10/s1",-6.421608413,CCCCC(CC)COC(=O)C=CC1=CC=C(OC)C=C1,0.364819412,G3,A,None,None,Uncharged
A-2176,"InChI=1S/C21H19N5O7/c1-10(27)17(18(28)22-12-5-7-14-16(9-12)24-21(31)23-14)26-25-15-8-11(19(29)32-2)4-6-13(15)20(30)33-3/h4-9,17H,1-3H3,(H,22,28)(H2,23,24,31)",-6.314069371,COC(=O)C1=CC=C(C(=O)OC)C([N-]N=C(C(C)=O)C(=O)NC2=CC=C3NC(=O)NC3=C2)=C1,0,G1,A,mono-constituent,None,Negative
A-2177,"InChI=1S/C12H24O/c1-2-3-4-5-6-7-8-9-10-12-11-13-12/h12H,2-11H2,1H3",-5.92315685,CCCCCCCCCCC1CO1,0,G1,A,mono-constituent,None,Uncharged
A-2178,"InChI=1S/C14H28O/c1-2-3-4-5-6-7-8-9-10-11-12-14-13-15-14/h14H,2-13H2,1H3",-5.984684801,CCCCCCCCCCCCC1CO1,0.321726338,G3,A,mono-constituent,None,Uncharged
A-2179,"InChI=1S/C13H20O/c1-3-10-9-7-12(11(10)4-1)13(8-9)5-2-6-14-13/h9-12H,1-8H2",-5.94156112,C1CC2C3CC(C2C1)C1(CCCO1)C3,0,G1,A,multi-constituent,Prediction Estimation,Uncharged
A-2180,"InChI=1S/C8H18OSi2/c1-7-10(3,4)9-11(5,6)8-2/h7-8H,1-2H2,3-6H3",-5.954482552,C[Si](C)(O[Si](C)(C)C=C)C=C,0,G1,A,mono-constituent,None,Uncharged
A-2181,"InChI=1S/C20H26O2/c1-11(2)18(16-9-12(3)7-14(5)19(16)21)17-10-13(4)8-15(6)20(17)22/h7-11,18,21-22H,1-6H3",-6.16734062,CC(C)C(C1=CC(C)=CC(C)=C1O)C1=CC(C)=CC(C)=C1O,0,G1,A,mono-constituent,None,Uncharged
A-2183,"InChI=1S/C21H19N5O7/c1-10(27)17(18(28)22-13-4-5-15-16(9-13)24-21(31)23-15)26-25-14-7-11(19(29)32-2)6-12(8-14)20(30)33-3/h4-9,17H,1-3H3,(H,22,28)(H2,23,24,31)",-6.377738451,COC(=O)C1=CC(=CC([N-]N=C(C(C)=O)C(=O)NC2=CC=C3NC(=O)NC3=C2)=C1)C(=O)OC,0,G1,A,mono-constituent,None,Negative
A-2184,"InChI=1S/C16H12O6/c1-21-13-3-2-8(4-10(13)18)14-7-12(20)16-11(19)5-9(17)6-15(16)22-14/h2-7,17-19H,1H3",-6.198752558,COC1=CC=C(C=C1O)C1=CC(=O)C2=C(O)C=C([O-])C=C2O1,0,G1,A,mono-constituent,Cosolvent Buffer,Negative
A-2186,"InChI=1S/C21H36N6O6.3C6H15NO3/c28-16(29)10-4-1-7-13-22-19-25-20(23-14-8-2-5-11-17(30)31)27-21(26-19)24-15-9-3-6-12-18(32)33;3*8-4-1-7(2-5-9)3-6-10/h1-15H2,(H,28,29)(H,30,31)(H,32,33)(H3,22,23,24,25,26,27);3*8-10H,1-6H2",-6.683201134,[O-]C(=O)CCCCCNC1=NC(NCCCCCC([O-])=O)=[NH+]C(NCCCCCC([O-])=O)=N1,0,G1,A,mono-constituent,Cosolvent Buffer,Zwitterion
A-2187,"InChI=1S/C11H7F13O2/c1-2-5(25)26-4-3-6(12,13)7(14,15)8(16,17)9(18,19)10(20,21)11(22,23)24/h2H,1,3-4H2",-6.354159334,FC(F)(F)C(F)(F)C(F)(F)C(F)(F)C(F)(F)C(F)(F)CCOC(=O)C=C,0,G1,A,mono-constituent,None,Uncharged
A-2188,"InChI=1S/C26H47O3P/c1-24(2)18-12-7-5-9-16-22-27-30(29-26-20-14-11-15-21-26)28-23-17-10-6-8-13-19-25(3)4/h11,14-15,20-21,24-25H,5-10,12-13,16-19,22-23H2,1-4H3",-6.382029914,CC(C)CCCCCCCOP(OCCCCCCCC(C)C)OC1=CC=CC=C1,0.321780564,G3,A,None,None,Uncharged
A-2190,"InChI=1S/H2O4S.O.Ti/c1-5(2,3)4;;/h(H2,1,2,3,4);;",-5.961394278,O=[Ti],0.102223995,G5,A,None,Cosolvent Buffer,Uncharged
A-2193,"InChI=1S/C15H10O2/c1-9-6-7-12-13(8-9)15(17)11-5-3-2-4-10(11)14(12)16/h2-8H,1H3",-6.117146249,CC1=CC=C2C(=O)C3=CC=CC=C3C(=O)C2=C1,0,G1,A,mono-constituent,None,Uncharged
A-2200,"InChI=1S/C18H16N2/c1-3-7-15(8-4-1)19-17-11-13-18(14-12-17)20-16-9-5-2-6-10-16/h1-14,19-20H",-6.239449641,N(C1=CC=CC=C1)C1=CC=C(NC2=CC=CC=C2)C=C1,0,G1,A,mono-constituent,None,Uncharged
A-2201,"InChI=1S/C14H12O4/c1-17-13(15)11-5-3-10-8-12(14(16)18-2)6-4-9(10)7-11/h3-8H,1-2H3",-6.211736201,COC(=O)C1=CC2=CC=C(C=C2C=C1)C(=O)OC,0.044865714,G3,A,mono-constituent,None,Uncharged
A-2205,"InChI=1S/3C20H8Br4O5.2Al/c3*21-11-5-9-13(7-3-1-2-4-8(7)20(27)28)10-6-12(22)17(26)15(24)19(10)29-18(9)14(23)16(11)25;;/h3*1-6,25H,(H,27,28);;/q;;;2*+3/p-6",-7.143562702,[O-]C(=O)C1=CC=CC=C1C1=C2C=C(Br)C(=O)C(Br)=C2OC2=C(Br)C([O-])=C(Br)C=C12,0,G1,A,multi-constituent,None,Negative
A-2206,"InChI=1S/C14H8O4/c15-9-5-6-10(16)12-11(9)13(17)7-3-1-2-4-8(7)14(12)18/h1-6,15-16H",-6.253493517,OC1=CC=C(O)C2=C1C(=O)C1=CC=CC=C1C2=O,0.085391661,G5,A,mono-constituent,None,Uncharged
A-2210,"InChI=1S/C16H20/c1-11(2)14-10-9-13-7-5-6-8-15(13)16(14)12(3)4/h5-12H,1-4H3",-6.230113619,CC(C)C1=C(C(C)C)C2=CC=CC=C2C=C1,0.047760796,G5,A,None,None,Uncharged
A-2214,"InChI=1S/2C8H17.O.Sn/c2*1-3-5-7-8-6-4-2;;/h2*1,3-8H2,2H3;;",-6.478515993,CCCCCCCC[Sn](=O)CCCCCCCC,0.448668829,G3,A,mono-constituent,None,Uncharged
A-2217,"InChI=1S/C19H21N5O2/c1-26-18-8-6-16(7-9-18)23-12-10-22(11-13-23)15-2-4-17(5-3-15)24-14-20-21-19(24)25/h2-9,14H,10-13H2,1H3,(H,21,25)",-6.488909265,COC1=CC=C(C=C1)N1CCN(CC1)C1=CC=C(C=C1)N1C=NNC1=O,0,G1,A,mono-constituent,None,Uncharged
A-2218,"InChI=1S/C13H9Cl3N2O/c14-8-1-3-9(4-2-8)17-13(19)18-10-5-6-11(15)12(16)7-10/h1-7H,(H2,17,18,19)",-6.45772642,ClC1=CC=C(NC(=O)NC2=CC=C(Cl)C(Cl)=C2)C=C1,0.520696343,G2,A,mono-constituent,None,Uncharged
A-2221,"InChI=1S/C17H34O4/c1-13-10-16(8,9)12-17(11-13,20-18-14(2,3)4)21-19-15(5,6)7/h13H,10-12H2,1-9H3",-6.480660768,CC1CC(C)(C)CC(C1)(OOC(C)(C)C)OOC(C)(C)C,0.460307841,G5,A,mono-constituent,None,Uncharged
A-2225,"InChI=1S/C15H24/c1-11-6-5-7-12(2)13-10-15(3,4)14(13)9-8-11/h6,13-14H,2,5,7-10H2,1,3-4H3/b11-6+/t13-,14-/m1/s1",-6.337261665,CC1=CCCC(=C)C2CC(C)(C)C2CC1,0.014322591,G3,A,mono-constituent,None,Uncharged
A-2229,"InChI=1S/C18H22/c1-17(2,15-11-7-5-8-12-15)18(3,4)16-13-9-6-10-14-16/h5-14H,1-4H3",-6.474168897,CC(C)(C1=CC=CC=C1)C(C)(C)C1=CC=CC=C1,0,G1,A,mono-constituent,Non Valid pH,Uncharged
A-2231,"InChI=1S/C17H14O/c1-2-6-14(7-3-1)13-18-17-11-10-15-8-4-5-9-16(15)12-17/h1-12H,13H2",-6.477673979,C(OC1=CC2=CC=CC=C2C=C1)C1=CC=CC=C1,0.230365419,G3,A,mono-constituent,None,Uncharged
A-2232,"InChI=1S/C17H10BrNO2/c1-19-13-7-6-12(18)16-15(13)11(8-14(19)20)9-4-2-3-5-10(9)17(16)21/h2-8H,1H3",-6.680445321,CN1C(=O)C=C2C3=CC=CC=C3C(=O)C3=C(Br)C=CC1=C23,0,G1,A,mono-constituent,None,Uncharged
A-2233,"InChI=1S/C17H12N2O4/c20-16-9-12-5-2-1-4-11(12)8-15(16)17(21)18-13-6-3-7-14(10-13)19(22)23/h1-10,20H,(H,18,21)",-6.643865624,OC1=CC2=CC=CC=C2C=C1C(=O)NC1=CC=CC(=C1)[N+]([O-])=O,0,G1,A,mono-constituent,None,PureChargeSeparation
A-2235,InChI=1S/2La.3O/q2*+3;3*-2,-6.670353837,[La+3],0,G1,A,mono-constituent,None,Uncharged
A-2236,InChI=1S/C13H4Cl4N2O7/c14-5-1-7(16)11(3-9(5)18(21)22)25-13(20)26-12-4-10(19(23)24)6(15)2-8(12)17/h1-4H,-6.812907461,[O-][N+](=O)C1=CC(OC(=O)OC2=CC(=C(Cl)C=C2Cl)[N+]([O-])=O)=C(Cl)C=C1Cl,0,G1,A,mono-constituent,None,PureChargeSeparation
A-2238,"InChI=1S/C18H22/c1-3-7-15(8-4-1)17-11-13-18(14-12-17)16-9-5-2-6-10-16/h1,3,5,9,11-16H,2,4,6-8,10H2",-6.591929049,C1CC=CC(C1)C1=CC=C(C=C1)C1CCC=CC1,0.058880076,G3,A,UVCB,None,Uncharged
A-2240,"InChI=1S/C18H36O.H3O4P/c1-2-3-4-5-6-7-8-9-10-11-12-13-14-15-16-17-18-19;1-5(2,3)4/h9-10,19H,2-8,11-18H2,1H3;(H3,1,2,3,4)/b10-9-;",-6.785897843,CCCCCCCCC=CCCCCCCCCO,0,G1,A,UVCB,Cosolvent Buffer,Uncharged
A-2241,"InChI=1S/C10H14O.CH2O/c1-10(2,3)8-4-6-9(11)7-5-8;1-2/h4-7,11H,1-3H3;1H2",-6.493940207,CC(C)(C)C1=CC=C(O)C=C1,0,G1,A,None,Cosolvent Buffer,Uncharged
A-2243,InChI=1S/Hg,-6.554121251,[Hg],0,G1,A,mono-constituent,None,Uncharged
A-2244,"InChI=1S/C18H16N2O/c1-12-7-9-16(13(2)11-12)19-20-18-15-6-4-3-5-14(15)8-10-17(18)21/h3-11,19H,1-2H3/b20-18-",-6.705444298,CC1=CC=C(NN=C2C(=O)C=CC3=CC=CC=C23)C(C)=C1,0,G1,A,mono-constituent,None,Uncharged
A-2245,"InChI=1S/C15H30O2/c1-3-4-5-6-7-8-9-10-11-12-13-14-15(16)17-2/h3-14H2,1-2H3",-6.649738161,CCCCCCCCCCCCCC(=O)OC,0,G1,A,mono-constituent,None,Uncharged
A-2246,"InChI=1S/C33H33N3O/c1-35(2)27-18-14-24(15-19-27)33(37,25-16-20-28(21-17-25)36(3)4)31-22-23-32(30-13-9-8-12-29(30)31)34-26-10-6-5-7-11-26/h5-23,34,37H,1-4H3",-6.989135552,CN(C)C1=CC=C(C=C1)C(O)(C1=CC=C(C=C1)N(C)C)C1=CC=C(NC2=CC=CC=C2)C2=CC=CC=C12,0,G1,A,mono-constituent,None,Uncharged
A-2248,"InChI=1S/C26H20N2O2S2/c29-25(19-11-3-1-4-12-19)27-21-15-7-9-17-23(21)31-32-24-18-10-8-16-22(24)28-26(30)20-13-5-2-6-14-20/h1-18H,(H,27,29)(H,28,30)",-6.978287061,O=C(NC1=CC=CC=C1SSC1=CC=CC=C1NC(=O)C1=CC=CC=C1)C1=CC=CC=C1,1.110924375,G2,A,mono-constituent,None,Uncharged
A-2250,"InChI=1S/C20H41NO/c1-4-7-10-11-12-13-14-15-16-17-20(22)21(18-8-5-2)19-9-6-3/h4-19H2,1-3H3",-7.016412077,CCCCCCCCCCCC(=O)N(CCCC)CCCC,0,G1,A,mono-constituent,None,Uncharged
A-2251,"InChI=1S/C9H9NO5/c1-6(11)15-9-5-7(10(12)13)3-4-8(9)14-2/h3-5H,1-2H3",-2.946604067,COC1=CC=C(C=C1OC(C)=O)[N+]([O-])=O,0,G1,A,mono-constituent,None,PureChargeSeparation
A-2252,"InChI=1S/CH4O3S.Cu/c1-5(2,3)4;/h1H3,(H,2,3,4);",0.732330182,CS([O-])(=O)=O,0,G1,A,None,None,Negative
A-2253,"InChI=1S/C16H14O4/c1-11-3-7-13(8-4-11)15(17)19-20-16(18)14-9-5-12(2)6-10-14/h3-10H,1-2H3",-6.798351882,CC1=CC=C(C=C1)C(=O)OOC(=O)C1=CC=C(C)C=C1,0,G1,A,mono-constituent,Unstable,Uncharged
A-2255,"InChI=1S/C27H36O2/c1-18-13-22(26(28)24(15-18)20-9-5-3-6-10-20)17-23-14-19(2)16-25(27(23)29)21-11-7-4-8-12-21/h13-16,20-21,28-29H,3-12,17H2,1-2H3",-6.979034273,CC1=CC(CC2=CC(C)=CC(C3CCCCC3)=C2O)=C(O)C(=C1)C1CCCCC1,0.547804152,G4,A,mono-constituent,None,Uncharged