ID,InChI,Solubility,SMILEScurated,SD,Group,Dataset,Composition,Error,Charge
B-2107,"InChI=1S/C14H21N2O4P/c17-21(15-6-10-18-11-7-15,16-8-12-19-13-9-16)20-14-4-2-1-3-5-14/h1-5H,6-13H2",0.3925,O=P(OC1=CC=CC=C1)(N1CCOCC1)N1CCOCC1,0,G1,B,None,None,Uncharged
B-2108,"InChI=1S/C7H14O3/c1-2-3-6-10-7(9)4-5-8/h8H,2-6H2,1H3",-1.2899,CCCCOC(=O)CCO,0,G1,B,None,None,Uncharged
B-2110,"InChI=1S/C8H10O8S/c9-5(10)1-3(7(13)14)17-4(8(15)16)2-6(11)12/h3-4H,1-2H2,(H,9,10)(H,11,12)(H,13,14)(H,15,16)",-0.4908,[O-]C(=O)CC(SC(CC([O-])=O)C([O-])=O)C([O-])=O,0,G1,B,None,None,Negative
B-2111,"InChI=1S/C7H7NO3/c1-5-3-2-4-6(9)7(5)8(10)11/h2-4,9H,1H3",-1.64,CC1=CC=CC(O)=C1[N+]([O-])=O,0,G1,B,None,None,PureChargeSeparation
B-2112,"InChI=1S/C4H5Cl2NO2/c5-1-3(8)7-4(9)2-6/h1-2H2,(H,7,8,9)",-2.2304,ClCC(=O)NC(=O)CCl,0,G1,B,None,None,Uncharged
B-2113,"InChI=1S/C19H26N2S2/c1-3-9-15(10-4-1)21(16-11-5-2-6-12-16)23-19-20-17-13-7-8-14-18(17)22-19/h7-8,13-16H,1-6,9-12H2",-6.7886,C1CCC(CC1)N(SC1=NC2=CC=CC=C2S1)C1CCCCC1,1.519928859,G4,B,None,None,Uncharged
B-2114,"InChI=1S/C9H9NO6/c1-15-7-3-5(9(11)12)6(10(13)14)4-8(7)16-2/h3-4H,1-2H3,(H,11,12)/p-1",-0.7543,COC1=CC(C([O-])=O)=C(C=C1OC)[N+]([O-])=O,0,G1,B,None,None,Negative
B-2115,"InChI=1S/C17H15NO5/c1-11(19)18-13-7-9-14(10-8-13)23-17(21)15-5-3-4-6-16(15)22-12(2)20/h3-10H,1-2H3,(H,18,19)",-4.1949,CC(=O)NC1=CC=C(OC(=O)C2=CC=CC=C2OC(C)=O)C=C1,0,G1,B,None,None,Uncharged
B-2116,"InChI=1S/C11H15NO2S/c13-15(14,11-7-3-1-4-8-11)12-9-5-2-6-10-12/h1,3-4,7-8H,2,5-6,9-10H2",-2.5365,O=S(=O)(N1CCCCC1)C1=CC=CC=C1,0,G1,B,None,None,Uncharged
B-2117,"InChI=1S/C12H16N2/c1-3-14(4-2)12(10-13)11-8-6-5-7-9-11/h5-9,12H,3-4H2,1-2H3",-0.9738,CCN(CC)C(C#N)C1=CC=CC=C1,0,G1,B,None,None,Uncharged
B-2121,"InChI=1S/C10H8N2O2/c13-12(14)7-9-6-5-8-3-1-2-4-10(8)11-9/h1-6H,7H2",-2.0545,[O-][N+](=O)CC1=NC2=CC=CC=C2C=C1,0,G1,B,None,None,PureChargeSeparation
B-2122,"InChI=1S/C12H14NO4PS/c1-3-16-18(19,17-4-2)13-11(14)9-7-5-6-8-10(9)12(13)15/h5-8H,3-4H2,1-2H3",-3.3522,CCOP(=S)(OCC)N1C(=O)C2=CC=CC=C2C1=O,0,G1,B,None,None,Uncharged
B-2123,"InChI=1S/C6H10O4S2/c7-5(8)3(11)1-2-4(12)6(9)10/h3-4,11-12H,1-2H2,(H,7,8)(H,9,10)",-2.4758,[O-]C(=O)C(S)CCC(S)C([O-])=O,0,G1,B,None,None,Negative
B-2124,"InChI=1S/C7H11NO4S2/c1-2-14-7(13)8-4(6(11)12)3-5(9)10/h4H,2-3H2,1H3,(H,8,13)(H,9,10)(H,11,12)/t4-/m0/s1",-1.3863,CCSC(=S)NC(CC([O-])=O)C([O-])=O,0,G1,B,None,None,Negative
B-2125,"InChI=1S/C8H16Cl2O5S2/c9-1-5-16(11,12)7-3-15-4-8-17(13,14)6-2-10/h1-8H2",-1.9408,ClCCS(=O)(=O)CCOCCS(=O)(=O)CCCl,0,G1,B,None,None,Uncharged
B-2126,"InChI=1S/C9H8O5/c1-14-7-4-5(8(10)11)2-3-6(7)9(12)13/h2-4H,1H3,(H,10,11)(H,12,13)",-1.9916,COC1=CC(=CC=C1C([O-])=O)C([O-])=O,0,G1,B,None,None,Negative
B-2128,"InChI=1S/C9H10ClNO/c1-6-5-8(10)3-4-9(6)11-7(2)12/h3-5H,1-2H3,(H,11,12)",-2.3097,CC(=O)NC1=CC=C(Cl)C=C1C,0,G1,B,None,None,Uncharged
B-2129,"InChI=1S/C11H19N3O/c1-5-6-7-9-8(2)12-11(14(3)4)13-10(9)15/h5-7H2,1-4H3,(H,12,13,15)",-2.2416,CCCCC1=C(C)N=C(NC1=O)N(C)C,0,G1,B,None,None,Uncharged
B-2130,"InChI=1S/C17H23NO6S/c1-18-13-7-8-14(18)10-15(9-13)24-17(19)16(11-23-25(20,21)22)12-5-3-2-4-6-12/h2-6,13-16H,7-11H2,1H3,(H,20,21,22)",-1.5675,C[NH+]1C2CCC1CC(C2)OC(=O)C(COS([O-])(=O)=O)C1=CC=CC=C1,0,G1,B,None,None,Zwitterion
B-2133,"InChI=1S/C8H14O2/c9-8(10)6-7-4-2-1-3-5-7/h7H,1-6H2,(H,9,10)",-1.6935,[O-]C(=O)CC1CCCCC1,0,G1,B,None,None,Negative
B-2134,"InChI=1S/C19H39NO2/c1-3-4-5-6-7-8-9-10-11-12-13-14-15-16-17-20-19(22)18(2)21/h18,21H,3-17H2,1-2H3,(H,20,22)",-3.6512,CCCCCCCCCCCCCCCCNC(=O)C(C)O,0,G1,B,None,None,Uncharged
B-2135,"InChI=1S/C8H17NO2/c1-3-4-5-6-9-8(11)7(2)10/h7,10H,3-6H2,1-2H3,(H,9,11)",-0.3825,CCCCCNC(=O)C(C)O,0,G1,B,None,None,Uncharged
B-2136,"InChI=1S/C13H18O7/c14-6-8(15)12-10(17)9(16)11(18)13(20-12)19-7-4-2-1-3-5-7/h1-5,8-18H,6H2",-1.5537,OCC(O)C1OC(OC2=CC=CC=C2)C(O)C(O)C1O,0,G1,B,None,None,Uncharged
B-2137,"InChI=1S/C6H6NO5P/c8-7(9)5-2-1-3-6(4-5)13(10,11)12/h1-4H,(H2,10,11,12)",0.6835,[O-][N+](=O)C1=CC(=CC=C1)P([O-])([O-])=O,0,G1,B,None,None,Negative
B-2138,"InChI=1S/C16H25NO2/c1-2-3-4-5-6-7-8-9-13-19-16(18)15-11-10-12-17-14-15/h10-12,14H,2-9,13H2,1H3",-3.1901,CCCCCCCCCCOC(=O)C1=CC=CN=C1,0,G1,B,None,None,Uncharged
B-2139,"InChI=1S/C7H13NO3/c1-5(2)3-6(7(10)11)8-4-9/h4-6H,3H2,1-2H3,(H,8,9)(H,10,11)",-0.7328,CC(C)CC(NC=O)C([O-])=O,0,G1,B,None,None,Negative
B-2141,"InChI=1S/C2H7NO4S2/c1-8(4,5)3-9(2,6)7/h3H,1-2H3",0.0402,CS(=O)(=O)[N-]S(C)(=O)=O,0,G1,B,None,None,Negative
B-2142,"InChI=1S/C7H14O3/c1-3-5-10-7(8)4-6-9-2/h3-6H2,1-2H3",-0.6598,CCCOC(=O)CCOC,0,G1,B,None,None,Uncharged
B-2143,"InChI=1S/C8H16O4/c1-9-7(10-2)5-6-8(11-3)12-4/h5-8H,1-4H3/b6-5-",0.055,COC(OC)C=CC(OC)OC,0,G1,B,None,None,Uncharged
B-2144,"InChI=1S/C6H11N/c1-6-4-3-5-7(6)2/h4H,3,5H2,1-2H3",0.1265,C[NH+]1CCC=C1C,0,G1,B,None,None,Positive
B-2146,"InChI=1S/C6H11N4PS/c7-9-11(12,10-8)6-4-2-1-3-5-6/h1-5H,7-8H2,(H2,9,10,12)",-1.425,NNP(=S)(NN)C1=CC=CC=C1,0,G1,B,None,None,Uncharged
B-2147,"InChI=1S/C10H12O3/c1-7-3-8(2)5-9(4-7)13-6-10(11)12/h3-5H,6H2,1-2H3,(H,11,12)",-2.3527,CC1=CC(OCC([O-])=O)=CC(C)=C1,0,G1,B,None,None,Negative
B-2148,InChI=1S/C12H6Cl2O/c13-7-1-3-11-9(5-7)10-6-8(14)2-4-12(10)15-11/h1-6H,-7.2135,ClC1=CC2=C(OC3=C2C=C(Cl)C=C3)C=C1,0,G1,B,None,None,Uncharged
B-2149,"InChI=1S/C9H19NO2/c1-3-4-5-6-7-10-9(12)8(2)11/h8,11H,3-7H2,1-2H3,(H,10,12)",-0.9487,CCCCCCNC(=O)C(C)O,0,G1,B,None,None,Uncharged
B-2150,"InChI=1S/C9H16O4/c1-4-5-6-12-9(11)7(2)13-8(3)10/h7H,4-6H2,1-3H3",-0.7536,CCCCOC(=O)C(C)OC(C)=O,0,G1,B,None,None,Uncharged
B-2151,"InChI=1S/C10H14N4O2/c1-5-6-11-8-7(12(6)2)9(15)14(4)10(16)13(8)3/h5H2,1-4H3",-1.5687,CCC1=NC2=C(N1C)C(=O)N(C)C(=O)N2C,0,G1,B,None,None,Uncharged
B-2152,"InChI=1S/C12H13N5/c13-11(14)17-12(15)16-10-6-5-8-3-1-2-4-9(8)7-10/h1-7H,(H6,13,14,15,16,17)",-2.5497,NC(N)=[NH+]C(=[NH2+])NC1=CC2=CC=CC=C2C=C1,0,G1,B,None,None,Positive
B-2153,"InChI=1S/C5H6N2O4/c8-3(9)1-2-4(10)7-5(11)6-2/h2H,1H2,(H,8,9)(H2,6,7,10,11)",-1.1517,[O-]C(=O)CC1NC(=O)NC1=O,0,G1,B,None,None,Negative
B-2154,"InChI=1S/C7H7NO3/c1-5-2-3-6(8(10)11)4-7(5)9/h2-4,9H,1H3",-2.1851,CC1=CC=C(C=C1O)[N+]([O-])=O,0,G1,B,None,None,PureChargeSeparation
B-2155,"InChI=1S/C9H10N2O2S/c10-9(13)14-6-8(12)11-7-4-2-1-3-5-7/h1-5H,6H2,(H2,10,13)(H,11,12)",-1.3228,NC(=O)SCC(=O)NC1=CC=CC=C1,0,G1,B,None,None,Uncharged
B-2156,"InChI=1S/C19H18O4/c1-2-23-19(22)16(13-17(20)21)18(14-9-5-3-6-10-14)15-11-7-4-8-12-15/h3-12H,2,13H2,1H3,(H,20,21)",-2.1908,CCOC(=O)C(CC([O-])=O)=C(C1=CC=CC=C1)C1=CC=CC=C1,0,G1,B,None,None,Negative
B-2157,"InChI=1S/C6H7ClN6/c1-13-2-9-4-3(13)5(12-8)11-6(7)10-4/h2H,8H2,1H3,(H,10,11,12)",-1.1427,CN1C=NC2=NC(Cl)=NC(NN)=C12,0,G1,B,None,None,Uncharged
B-2158,"InChI=1S/C13H16O6/c1-5-17-12(15)9-7(3)19-8(4)10(11(9)14)13(16)18-6-2/h5-6H2,1-4H3",-1.5255,CCOC(=O)C1=C(C)OC(C)=C(C(=O)OCC)C1=O,0,G1,B,None,None,Uncharged
B-2159,"InChI=1S/C6H5IN2O2/c7-5-2-1-4(9(10)11)3-6(5)8/h1-3H,8H2",-4.4216,NC1=CC(=CC=C1I)[N+]([O-])=O,0,G1,B,None,None,PureChargeSeparation
B-2160,"InChI=1S/C11H15N3O4/c12-5-1-7-14(8-2-6-13)9(11(17)18)3-4-10(15)16/h9H,1-4,7-8H2,(H,15,16)(H,17,18)",-0.2275,[O-]C(=O)CCC(N(CCC#N)CCC#N)C([O-])=O,0,G1,B,None,None,Negative
B-2161,"InChI=1S/C11H17N3O2S/c1-17-9-4-10(11(15)16)14(7-2-5-12)8-3-6-13/h10H,2-4,7-9H2,1H3,(H,15,16)",-1.3279,CSCCC(N(CCC#N)CCC#N)C([O-])=O,0,G1,B,None,None,Negative
B-2162,"InChI=1S/C11H22O3/c1-3-4-5-6-7-8-9-14-11(13)10(2)12/h10,12H,3-9H2,1-2H3",-1.2726,CCCCCCCCOC(=O)C(C)O,0,G1,B,None,None,Uncharged
B-2163,"InChI=1S/C8H7NO2/c10-8-5-11-7-4-2-1-3-6(7)9-8/h1-4H,5H2,(H,9,10)",-2.5716,O=C1COC2=CC=CC=C2N1,0,G1,B,None,None,Uncharged
B-2164,"InChI=1S/C7H10O4/c1-2-3-5(7(10)11)4-6(8)9/h4H,2-3H2,1H3,(H,8,9)(H,10,11)/b5-4+",-1.1538,CCCC(=CC([O-])=O)C([O-])=O,0,G1,B,None,None,Negative
B-2165,"InChI=1S/C10H18N2O4/c1-3-15-9(13)11-5-7-12(8-6-11)10(14)16-4-2/h3-8H2,1-2H3",-0.7288,CCOC(=O)N1CCN(CC1)C(=O)OCC,0,G1,B,None,None,Uncharged
B-2166,"InChI=1S/C14H22O/c1-5-10(3)12-8-7-9-13(14(12)15)11(4)6-2/h7-11,15H,5-6H2,1-4H3/t10-,11+",-5.0593,CCC(C)C1=CC=CC(C(C)CC)=C1O,0,G1,B,None,None,Uncharged
B-2167,InChI=1S/C16H9NO2/c18-17(19)14-9-7-12-5-4-10-2-1-3-11-6-8-13(14)16(12)15(10)11/h1-9H,-7.3213,[O-][N+](=O)C1=CC=C2C=CC3=C4C(C=CC1=C24)=CC=C3,0,G1,B,None,None,PureChargeSeparation
B-2168,"InChI=1S/C8H10N4O4/c1-2-11(8(9)13)10-5-6-3-4-7(16-6)12(14)15/h3-5H,2H2,1H3,(H2,9,13)/b10-5+",-2.9395,CCN(N=CC1=CC=C(O1)[N+]([O-])=O)C(N)=O,0,G1,B,None,None,PureChargeSeparation
B-2169,"InChI=1S/C12H16O2/c13-12(14)10-6-2-5-9-11-7-3-1-4-8-11/h1,3-4,7-8H,2,5-6,9-10H2,(H,13,14)",-2.6026,[O-]C(=O)CCCCCC1=CC=CC=C1,0,G1,B,None,None,Negative
B-2170,"InChI=1S/C8H18O/c1-4-6-7-8(3,9)5-2/h9H,4-7H2,1-3H3",-1.7356,CCCCC(C)(O)CC,0.0664,G3,B,None,None,Uncharged
B-2171,"InChI=1S/C9H14O2/c1-6-7(8(10)11)4-5-9(6,2)3/h4-5H2,1-3H3,(H,10,11)",-2.8871,CC1=C(CCC1(C)C)C([O-])=O,0,G1,B,None,None,Negative
B-2172,"InChI=1S/C7H7Cl3NO3PS/c1-12-15(16,13-2)14-7-5(9)3-4(8)6(10)11-7/h3H,1-2H3",-4.831,COP(=S)(OC)OC1=NC(Cl)=C(Cl)C=C1Cl,0.040086019,G5,B,None,None,Uncharged
B-2173,"InChI=1S/C30H41FO7/c1-25(2,3)15-24(35)36-16-22(34)30-23(37-26(4,5)38-30)13-20-19-9-8-17-12-18(32)10-11-27(17,6)29(19,31)21(33)14-28(20,30)7/h10-12,19-21,23,33H,8-9,13-16H2,1-7H3/t19-,20-,21-,23+,27-,28-,29-,30+/m0/s1",-5.1244,CC(C)(C)CC(=O)OCC(=O)C12OC(C)(C)OC1CC1C3CCC4=CC(=O)C=CC4(C)C3(F)C(O)CC21C,0,G1,B,None,None,Uncharged
B-2174,"InChI=1S/C5H10O/c1-2-6-5-3-4-5/h5H,2-4H2,1H3",-0.6407,CCOC1CC1,0,G1,B,None,None,Uncharged
B-2175,"InChI=1S/C9H10N4O4/c1-11-4-10-7-6(11)8(16)13(3-5(14)15)9(17)12(7)2/h4H,3H2,1-2H3,(H,14,15)/p-1",-1.3769,CN1C=NC2=C1C(=O)N(CC([O-])=O)C(=O)N2C,0,G1,B,None,None,Negative
B-2176,"InChI=1S/C6H10N2O2/c1-3-5(9)8-4(2)6(10)7-3/h3-4H,1-2H3,(H,7,10)(H,8,9)/t3-,4+",-0.1528,CC1NC(=O)C(C)NC1=O,0,G1,B,None,None,Uncharged
B-2177,"InChI=1S/C11H12N2O2/c14-10-7-6-9(13-10)11(15)12-8-4-2-1-3-5-8/h1-5,9H,6-7H2,(H,12,15)(H,13,14)",-1.3278,O=C(NC1=CC=CC=C1)C1CCC(=O)N1,0,G1,B,None,None,Uncharged
B-2178,"InChI=1S/C12H10OS/c13-10-6-8-12(9-7-10)14-11-4-2-1-3-5-11/h1-9,13H",-2.7745,OC1=CC=C(SC2=CC=CC=C2)C=C1,0,G1,B,None,None,Uncharged
B-2179,"InChI=1S/C6H14O3/c1-3-7-5-9-6-8-4-2/h3-6H2,1-2H3",-0.1277,CCOCOCOCC,0,G1,B,None,None,Uncharged
B-2180,"InChI=1S/C12H8O2/c13-12-11-9(7-14-12)6-5-8-3-1-2-4-10(8)11/h1-6H,7H2",-3.3062,O=C1OCC2=C1C1=CC=CC=C1C=C2,0,G1,B,None,None,Uncharged
B-2181,"InChI=1S/C7H7NO4/c9-6(10)4-8-7(11)5-2-1-3-12-5/h1-3H,4H2,(H,8,11)(H,9,10)",-0.7272,[O-]C(=O)CNC(=O)C1=CC=CO1,0,G1,B,None,None,Negative
B-2182,"InChI=1S/C10H9N3O4S2/c11-6-1-3-7(4-2-6)19(16,17)13-10-12-5-8(18-10)9(14)15/h1-5H,11H2,(H,12,13)(H,14,15)",-2.8741,NC1=CC=C(C=C1)S(=O)(=O)[N-]C1=NC=C(S1)C([O-])=O,0,G1,B,None,None,Negative
B-2184,"InChI=1S/C8H14O4/c1-3-8(4-2,7(11)12)5-6(9)10/h3-5H2,1-2H3,(H,9,10)(H,11,12)",-0.7962,CCC(CC)(CC([O-])=O)C([O-])=O,0,G1,B,None,None,Negative
B-2185,"InChI=1S/C9H10O4/c10-7(8(11)9(12)13)6-4-2-1-3-5-6/h1-5,7-8,10-11H,(H,12,13)",-0.3063,OC(C(O)C1=CC=CC=C1)C([O-])=O,0,G1,B,None,None,Negative
B-2186,"InChI=1S/C11H12O2/c1-2-10(11(12)13)8-9-6-4-3-5-7-9/h2-7H,8H2,1H3,(H,12,13)",-2.5648,CC=C(CC1=CC=CC=C1)C([O-])=O,0,G1,B,None,None,Negative
B-2187,"InChI=1S/C13H10N2O3/c16-12(10-2-1-7-14-8-10)15-11-5-3-9(4-6-11)13(17)18/h1-8H,(H,15,16)(H,17,18)",-3.0832,[O-]C(=O)C1=CC=C(NC(=O)C2=CC=CN=C2)C=C1,0,G1,B,None,None,Negative
B-2188,"InChI=1S/C7H14O3/c1-4-9-7(6(3)8)10-5-2/h7H,4-5H2,1-3H3",-0.2059,CCOC(OCC)C(C)=O,0,G1,B,None,None,Uncharged
B-2190,"InChI=1S/C24H44N4O4/c29-21-13-5-1-9-17-25-22(30)14-6-2-11-19-27-24(32)16-8-4-12-20-28-23(31)15-7-3-10-18-26-21/h1-20H2,(H,25,30)(H,26,29)(H,27,32)(H,28,31)",-2.8126,O=C1CCCCCNC(=O)CCCCCNC(=O)CCCCCNC(=O)CCCCCN1,0,G1,B,None,None,Uncharged
B-2191,"InChI=1S/C17H16Cl2O3/c1-11(2)22-16(20)17(21,12-3-7-14(18)8-4-12)13-5-9-15(19)10-6-13/h3-11,21H,1-2H3",-5.3544,CC(C)OC(=O)C(O)(C1=CC=C(Cl)C=C1)C1=CC=C(Cl)C=C1,0.4122,G3,B,None,None,Uncharged
B-2192,"InChI=1S/C19H16O3/c20-18-15-9-3-4-11-16(15)22-19(21)17(18)14-10-5-7-12-6-1-2-8-13(12)14/h1-4,6,8-9,11,14,21H,5,7,10H2",-4.8638,[O-]C1=C(C2CCCC3=CC=CC=C23)C(=O)OC2=CC=CC=C12,0,G1,B,None,None,Negative
B-2193,"InChI=1S/C4H8O2S/c1-4(5)6-2-3-7/h7H,2-3H2,1H3",-1.5,CC(=O)OCCS,0,G1,B,None,None,Uncharged
B-2194,"InChI=1S/C9H13ClN2O2/c1-5-6(10)7(13)12(8(14)11-5)9(2,3)4/h1-4H3,(H,11,14)",-2.4845,CC1=C(Cl)C(=O)N(C(=O)N1)C(C)(C)C,0,G1,B,None,None,Uncharged
B-2195,"InChI=1S/C4H12O4P2S4/c1-5-9(11,6-2)13-14-10(12,7-3)8-4/h1-4H3",-4.3981,COP(=S)(OC)SSP(=S)(OC)OC,0,G1,B,None,None,Uncharged
B-2196,"InChI=1S/C6H13N3O5/c7-6(14)9-8-1-3(11)5(13)4(12)2-10/h1,3-5,10-13H,2H2,(H3,7,9,14)/t3-,4+,5+/m0/s1",-0.1288,NC(=O)NN=CC(O)C(O)C(O)CO,0,G1,B,None,None,Uncharged
B-2197,"InChI=1S/C3H7O5P/c4-3(5)1-2-9(6,7)8/h1-2H2,(H,4,5)(H2,6,7,8)",0.5007,OP([O-])(=O)CCC([O-])=O,0,G1,B,None,None,Negative
B-2198,"InChI=1S/C12H22O11/c13-1-3-5(15)6(16)9(19)12(22-3)23-10-4(2-14)21-11(20)8(18)7(10)17/h3-20H,1-2H2/t3-,4-,5+,6+,7-,8-,9-,10-,11-,12+/m1/s1",-0.8167,OCC1OC(OC2C(O)C(O)C(O)OC2CO)C(O)C(O)C1O,0,G1,B,None,None,Uncharged
B-2200,"InChI=1S/C12H28N2S/c1-5-13(6-2)9-11-15-12-10-14(7-3)8-4/h5-12H2,1-4H3",-2.3663,CC[NH+](CC)CCSCC[NH+](CC)CC,0,G1,B,None,None,Positive
B-2202,"InChI=1S/C12H14O3/c1-9(13)7-11(8-12(14)15)10-5-3-2-4-6-10/h2-6,11H,7-8H2,1H3,(H,14,15)",-1.4463,CC(=O)CC(CC([O-])=O)C1=CC=CC=C1,0,G1,B,None,None,Negative
B-2203,"InChI=1S/C8H7N5O8/c1-2-9(13(20)21)8-6(11(16)17)3-5(10(14)15)4-7(8)12(18)19/h3-4H,2H2,1H3",-3.7007,CCN(C1=C(C=C(C=C1[N+]([O-])=O)[N+]([O-])=O)[N+]([O-])=O)[N+]([O-])=O,0,G1,B,None,None,PureChargeSeparation
B-2204,"InChI=1S/C14H12N2/c15-13-7-3-11(4-8-13)1-2-12-5-9-14(16)10-6-12/h3-10H,15-16H2",-2.4326,NC1=CC=C(C=C1)C#CC1=CC=C(N)C=C1,0,G1,B,None,None,Uncharged
B-2205,"InChI=1S/C14H10O4/c15-12-8-4-3-7-11(12)13(16)9-5-1-2-6-10(9)14(17)18/h1-8,15H,(H,17,18)",-2.3428,OC1=CC=CC=C1C(=O)C1=CC=CC=C1C([O-])=O,0,G1,B,None,None,Negative
B-2206,"InChI=1S/C12H8N6O16/c19-9(33-5-11(13(21)22,14(23)24)15(25)26)7-3-1-2-4-8(7)10(20)34-6-12(16(27)28,17(29)30)18(31)32/h1-4H,5-6H2",-3.5782,[O-][N+](=O)C(COC(=O)C1=CC=CC=C1C(=O)OCC([N+]([O-])=O)([N+]([O-])=O)[N+]([O-])=O)([N+]([O-])=O)[N+]([O-])=O,0,G1,B,None,None,PureChargeSeparation
B-2207,"InChI=1S/C4H7Cl3O/c1-2-3(8)4(5,6)7/h3,8H,2H2,1H3",-0.9481,CCC(O)C(Cl)(Cl)Cl,0,G1,B,None,None,Uncharged
B-2209,"InChI=1S/C7H14O2/c1-6(2)5-7-8-3-4-9-7/h6-7H,3-5H2,1-2H3",-0.3695,CC(C)CC1OCCO1,0,G1,B,None,None,Uncharged
B-2210,"InChI=1S/C9H17NO/c11-9-7-5-3-1-2-4-6-8-10-9/h1-8H2,(H,10,11)",-1.0737,O=C1CCCCCCCCN1,0,G1,B,None,None,Uncharged
B-2211,"InChI=1S/CH4ClN/c1-3-2/h3H,1H3",0.2806,CNCl,0,G1,B,None,None,Uncharged
B-2214,"InChI=1S/C3H6O2S2/c4-3(5)2(7)1-6/h2,6-7H,1H2,(H,4,5)",-0.2374,[O-]C(=O)C(S)CS,0,G1,B,None,None,Negative
B-2215,"InChI=1S/C5H4N2O4/c8-6-3-4-1-2-5(11-4)7(9)10/h1-3,8H/b6-3+",-2.1934,[O-]N=CC1=CC=C(O1)[N+]([O-])=O,0,G1,B,None,None,Negative
B-2216,"InChI=1S/C13H15NO2/c15-12-9-5-2-6-10-14(12)13(16)11-7-3-1-4-8-11/h1,3-4,7-8H,2,5-6,9-10H2",-2.1667,O=C(N1CCCCCC1=O)C1=CC=CC=C1,0,G1,B,None,None,Uncharged
B-2217,"InChI=1S/C22H16N4O/c27-18-12-10-17(11-13-18)24-26-22-15-14-21(19-8-4-5-9-20(19)22)25-23-16-6-2-1-3-7-16/h1-15,26H",-6.0092,OC1=CC=C(C=C1)N=NC1=CC=C(N=NC2=CC=CC=C2)C2=CC=CC=C12,0,G1,B,None,None,Uncharged
B-2218,"InChI=1S/C11H19NO2/c1-9(2)7-4-5-10(9,3)11(12,6-7)8(13)14/h7H,4-6,12H2,1-3H3,(H,13,14)",-1.5961,CC1(C)C2CCC1(C)C([NH3+])(C2)C([O-])=O,0,G1,B,None,None,Zwitterion
B-2219,"InChI=1S/C4H11N.BrH/c1-3-5-4-2;/h5H,3-4H2,1-2H3;1H",0.8123,[Br-].CC[NH2+]CC,0,G1,B,None,None,Zwitterion
B-2220,"InChI=1S/C7H10N2O2S/c1-5-2-3-6(4-7(5)8)12(9,10)11/h2-4H,8H2,1H3,(H2,9,10,11)",-1.9169,CC1=CC=C(C=C1N)S(N)(=O)=O,0,G1,B,None,None,Uncharged
B-2221,"InChI=1S/C11H23NO2/c1-3-4-5-6-7-8-9-12-11(14)10(2)13/h10,13H,3-9H2,1-2H3,(H,12,14)",-2.2827,CCCCCCCCNC(=O)C(C)O,0,G1,B,None,None,Uncharged
B-2222,"InChI=1S/C13H27NO2/c1-3-4-5-6-7-8-9-10-11-14-13(16)12(2)15/h12,15H,3-11H2,1-2H3,(H,14,16)",-3.3605,CCCCCCCCCCNC(=O)C(C)O,0,G1,B,None,None,Uncharged
B-2223,"InChI=1S/C9H14O5/c1-4-5-13-9(12)7(3)14-8(11)6(2)10/h4,6-7,10H,1,5H2,2-3H3",-0.6826,CC(O)C(=O)OC(C)C(=O)OCC=C,0,G1,B,None,None,Uncharged
B-2224,"InChI=1S/C7H17NO5/c1-8-2-4(10)6(12)7(13)5(11)3-9/h4-13H,2-3H2,1H3",0.4084,C[NH2+]CC(O)C(O)C(O)C(O)CO,0.150543407,G3,B,None,None,Positive
B-2225,"InChI=1S/C6H10O4/c1-4(6(8)9-3)10-5(2)7/h4H,1-3H3",-0.2617,COC(=O)C(C)OC(C)=O,0,G1,B,None,None,Uncharged
B-2226,"InChI=1S/C8H11N3O2/c9-3-1-5-11(6-2-4-10)7-8(12)13/h1-2,5-7H2,(H,12,13)",0.4578,[O-]C(=O)CN(CCC#N)CCC#N,0,G1,B,None,None,Negative
B-2227,"InChI=1S/C10H11N3O2/c1-14-7-5-6-9(13-4-3-12-6)8(11)10(7)15-2/h3-5H,11H2,1-2H3",-1.7102,COC1=CC2=NC=CN=C2C(N)=C1OC,0,G1,B,None,None,Uncharged
B-2228,"InChI=1S/C9H12N2O/c1-7-3-5-8(6-4-7)11(2)9(10)12/h3-6H,1-2H3,(H2,10,12)",-0.423,CN(C(N)=O)C1=CC=C(C)C=C1,0,G1,B,None,None,Uncharged
B-2229,"InChI=1S/C7H16O/c1-6(2)4-7(3)5-8/h6-8H,4-5H2,1-3H3",-1.6007,CC(C)CC(C)CO,0,G1,B,None,None,Uncharged
B-2230,"InChI=1S/C7H8N2O3S/c8-7(10)5-1-3-6(4-2-5)13(9,11)12/h1-4H,(H2,8,10)(H2,9,11,12)",-2.3015,NC(=O)C1=CC=C(C=C1)S(N)(=O)=O,0,G1,B,None,None,Uncharged
B-2231,"InChI=1S/C12H12N2O2/c1-9-7-14(12(16)13-11(9)15)8-10-5-3-2-4-6-10/h2-7H,8H2,1H3,(H,13,15,16)",-2.2558,CC1=CN(CC2=CC=CC=C2)C(=O)NC1=O,0,G1,B,None,None,Uncharged
B-2232,"InChI=1S/C4H6N2O3S/c1-3-4(6-2-5-3)10(7,8)9/h2H,1H3,(H,5,6)(H,7,8,9)",0.188,CC1=C(N=CN1)S([O-])(=O)=O,0,G1,B,None,None,Negative
B-2233,"InChI=1S/C9H8N2O2/c1-5-2-3-6-7(4-5)11-9(13)8(12)10-6/h2-4H,1H3,(H,10,12)(H,11,13)",-3.0418,CC1=CC=C2NC(=O)C([O-])=[NH+]C2=C1,0,G1,B,None,None,Zwitterion
B-2234,"InChI=1S/C7H4BrNO4/c8-5-2-1-4(7(10)11)3-6(5)9(12)13/h1-3H,(H,10,11)",-2.9677,[O-]C(=O)C1=CC=C(Br)C(=C1)[N+]([O-])=O,0,G1,B,None,None,Negative
B-2235,"InChI=1S/C20H17NO/c1-21-18-13-7-5-11-16(18)20(22,15-9-3-2-4-10-15)17-12-6-8-14-19(17)21/h2-14,22H,1H3",-3.9031,CN1C2=CC=CC=C2C(O)(C2=CC=CC=C2)C2=CC=CC=C12,0,G1,B,None,None,Uncharged
B-2236,"InChI=1S/C9H12O4/c1-9(8(12)13)5-3-2-4-6(9)7(10)11/h4H,2-3,5H2,1H3,(H,10,11)(H,12,13)",-1.9642,CC1(CCCC=C1C([O-])=O)C([O-])=O,0,G1,B,None,None,Negative
B-2237,"InChI=1S/C10H13N3O4/c11-3-1-5-13(6-2-4-12)8(10(16)17)7-9(14)15/h8H,1-2,5-7H2,(H,14,15)(H,16,17)",-1.5337,[O-]C(=O)CC(N(CCC#N)CCC#N)C([O-])=O,0,G1,B,None,None,Negative
B-2238,"InChI=1S/C12H16N2O2/c1-13(2)11(15)9-7-5-6-8-10(9)12(16)14(3)4/h5-8H,1-4H3",0.5083,CN(C)C(=O)C1=CC=CC=C1C(=O)N(C)C,0,G1,B,None,None,Uncharged
B-2239,"InChI=1S/C12H14O4/c1-3-4-9-5-6-10(11(7-9)15-2)16-8-12(13)14/h3,5-7H,1,4,8H2,2H3,(H,13,14)/p-1",-2.2786,COC1=CC(CC=C)=CC=C1OCC([O-])=O,0,G1,B,None,None,Negative
B-2240,"InChI=1S/C19H24O5/c1-5-6-16(21)24-14-8-15-19(10-22-19)18(14,4)17(3)9-12(20)11(2)7-13(17)23-15/h5-7,13-15H,8-10H2,1-4H3/b6-5-/t13-,14-,15-,17+,18-,19-/m1/s1",-2.9196,CC=CC(=O)OC1CC2OC3C=C(C)C(=O)CC3(C)C1(C)C21CO1,0,G1,B,None,None,Uncharged
B-2241,"InChI=1S/C8H16O3/c1-3-4-5-6-11-8(10)7(2)9/h7,9H,3-6H2,1-2H3",-1.2047,CCCCCOC(=O)C(C)O,0,G1,B,None,None,Uncharged
B-2242,"InChI=1S/C9H9ClO4/c10-7-1-2-8(6(3-7)4-11)14-5-9(12)13/h1-3,11H,4-5H2,(H,12,13)",-2.0347,OCC1=CC(Cl)=CC=C1OCC([O-])=O,0,G1,B,None,None,Negative
B-2243,"InChI=1S/C16H22N2O2/c1-6-8-18(9-7-2)15-12(3)10-14(11-13(15)4)20-16(19)17-5/h6-7,10-11H,1-2,8-9H2,3-5H3,(H,17,19)",-3.5932,CNC(=O)OC1=CC(C)=C(N(CC=C)CC=C)C(C)=C1,0,G1,B,None,None,Uncharged
B-2244,InChI=1S/C12H9ClO/c13-10-5-4-8-12(9-10)14-11-6-2-1-3-7-11/h1-9H,-4.2107,ClC1=CC=CC(OC2=CC=CC=C2)=C1,0,G1,B,None,None,Uncharged
B-2245,"InChI=1S/C10H14O/c1-7(2)9-5-4-8(3)10(11)6-9/h4,9H,1,5-6H2,2-3H3/t9-/m1/s1",-2.0608,CC(=C)C1CC=C(C)C(=O)C1,0,G1,B,None,None,Uncharged
B-2246,"InChI=1S/C13H9ClN2O4/c14-8-1-3-9(4-2-8)15-13(18)11-7-10(16(19)20)5-6-12(11)17/h1-7,17H,(H,15,18)",-5.122,[O-]C1=CC=C(C=C1C(=O)NC1=CC=C(Cl)C=C1)[N+]([O-])=O,0,G1,B,None,None,Negative
B-2247,"InChI=1S/C13H9ClN2O4/c14-8-4-6-9(7-5-8)15-13(18)10-2-1-3-11(12(10)17)16(19)20/h1-7,17H,(H,15,18)",-4.5452,[O-]C1=C(C=CC=C1[N+]([O-])=O)C(=O)NC1=CC=C(Cl)C=C1,0,G1,B,None,None,Negative
B-2248,"InChI=1S/C8H14BrNO3/c1-4(2)6(9)7(11)10-5(3)8(12)13/h4-6H,1-3H3,(H,10,11)(H,12,13)",-0.4825,CC(C)C(Br)C(=O)NC(C)C([O-])=O,0,G1,B,None,None,Negative
B-2249,"InChI=1S/C13H18N4O3/c1-9(18)6-4-5-7-17-12(19)10-11(14-8-15(10)2)16(3)13(17)20/h8H,4-7H2,1-3H3",-0.558,CN1C=NC2=C1C(=O)N(CCCCC(C)=O)C(=O)N2C,0,G1,B,None,None,Uncharged