ID,InChI,Solubility,SMILEScurated,SD,Group,Dataset,Composition,Error,Charge
B-120,"InChI=1S/C10H20N2O4/c1-4-7(2)10(3,5-15-8(11)13)6-16-9(12)14/h7H,4-6H2,1-3H3,(H2,11,13)(H2,12,14)",-2.366,CCC(C)C(C)(COC(N)=O)COC(N)=O,0,G1,B,None,None,Uncharged
B-121,"InChI=1S/C22H25NO6/c1-12(24)23-16-8-6-13-10-19(27-3)21(28-4)22(29-5)20(13)14-7-9-18(26-2)17(25)11-15(14)16/h7,9-11,16H,6,8H2,1-5H3,(H,23,24)/t16-/m0/s1",-0.9482,COC1=CC2=C(C(OC)=C1OC)C1=CC=C(OC)C(=O)C=C1C(CC2)NC(C)=O,0,G1,B,None,None,Uncharged
B-122,"InChI=1S/C8H9NO3.ClH/c1-5-8(12)7(4-11)6(3-10)2-9-5;/h2,4,10,12H,3H2,1H3;1H",0.3901,CC1=NC=C(CO)C(C=O)=C1O,0,G1,B,None,None,Uncharged
B-124,"InChI=1S/C9H9I2NO3/c10-5-1-4(2-6(11)8(5)13)3-7(12)9(14)15/h1-2,7,13H,3,12H2,(H,14,15)/t7-/m0/s1",-2.8583,[NH3+]C(CC1=CC(I)=C(O)C(I)=C1)C([O-])=O,0.0071,G3,B,None,None,Zwitterion
B-125,InChI=1S/C12H8N2/c1-3-9-5-6-10-4-2-8-14-12(10)11(9)13-7-1/h1-8H,-1.826,C1=CC2=C(N=C1)C1=C(C=CC=N1)C=C2,0.289211956,G5,B,None,None,Uncharged
B-126,"InChI=1S/C8H9NO3/c1-5-8(12)7(4-11)6(3-10)2-9-5/h2,4,10,12H,3H2,1H3",0.4758,CC1=NC=C(CO)C(C=O)=C1O,0,G1,B,None,None,Uncharged
B-128,"InChI=1S/C7H7N3O4/c1-5(11)9-8-4-6-2-3-7(14-6)10(12)13/h2-4H,1H3,(H,9,11)/b8-4+",-2.5958,CC(=O)NN=CC1=CC=C(O1)[N+]([O-])=O,0,G1,B,None,None,PureChargeSeparation
B-131,InChI=1S/C3H6O/c1-3(2)4/h1-2H3,1.236,CC(C)=O,0,G1,B,None,None,Uncharged
B-132,InChI=1S/C2H6OS/c1-4(2)3/h1-2H3,1.1072,CS(C)=O,0,G1,B,None,None,Uncharged
B-133,"InChI=1S/C13H14N2O4S2/c1-14-10(18)12-5-7-3-2-4-8(17)9(7)15(12)11(19)13(14,6-16)21-20-12/h2-4,8-9,16-17H,5-6H2,1H3/t8-,9-,12+,13+/m0/s1",-3.6687,CN1C(=O)C23CC4=CC=CC(O)C4N2C(=O)C1(CO)SS3,0,G1,B,None,None,Uncharged
B-135,"InChI=1S/C20H26O2/c1-3-20(22)11-9-18-17-6-4-13-12-14(21)5-7-15(13)16(17)8-10-19(18,20)2/h1,12,15-18,22H,4-11H2,2H3/t15-,16+,17+,18-,19-,20-/m0/s1",-4.6271,CC12CCC3C(CCC4=CC(=O)CCC34)C1CCC2(O)C#C,0.049774315,G3,B,None,None,Uncharged
B-137,"InChI=1S/C5H4N4O/c10-5-3-4(7-1-6-3)8-2-9-5/h1-2H,(H2,6,7,8,9,10)",-2.2888,O=C1N=CNC2=C1NC=N2,0,G1,B,None,None,Uncharged
B-140,"InChI=1S/C12H22O11/c13-1-3-5(15)6(16)9(19)12(22-3)23-10-4(2-14)21-11(20)8(18)7(10)17/h3-20H,1-2H2",0.3577,OCC1OC(OC2C(O)C(O)C(O)OC2CO)C(O)C(O)C1O,0.30105,G3,B,None,None,Uncharged
B-142,"InChI=1S/C13H6Cl6O2/c14-6-2-8(16)12(20)4(10(6)18)1-5-11(19)7(15)3-9(17)13(5)21/h2-3,20-21H,1H2",-3.4634,OC1=C(Cl)C=C(Cl)C(Cl)=C1CC1=C([O-])C(Cl)=CC(Cl)=C1Cl,0,G1,B,None,None,Negative
B-143,InChI=1S/C6H3FN2O4/c7-5-2-1-4(8(10)11)3-6(5)9(12)13/h1-3H,-2.6677,[O-][N+](=O)C1=CC=C(F)C(=C1)[N+]([O-])=O,0,G1,B,None,None,PureChargeSeparation
B-145,"InChI=1S/C25H48N6O8/c1-21(32)29(37)18-9-3-6-16-27-22(33)12-14-25(36)31(39)20-10-4-7-17-28-23(34)11-13-24(35)30(38)19-8-2-5-15-26/h37-39H,2-20,26H2,1H3,(H,27,33)(H,28,34)",-1.6695,CC(=O)N(O)CCCCCNC(=O)CCC(=O)N(O)CCCCCNC(=O)CCC(=O)N(O)CCCCC[NH3+],0,G1,B,None,None,Positive
B-146,"InChI=1S/C6H9N3O2/c7-5(6(10)11)1-4-2-8-3-9-4/h2-3,5H,1,7H2,(H,8,9)(H,10,11)",-0.5314,[NH3+]C(CC1=CN=CN1)C([O-])=O,0.012951459,G3,B,None,None,Zwitterion
B-148,"InChI=1S/C4H5N3O/c5-3-1-2-6-4(8)7-3/h1-2H,(H3,5,6,7,8)",-1.1426,NC1=NC(=O)NC=C1,0.0087,G3,B,None,None,Uncharged
B-149,"InChI=1S/C41H64O13/c1-20-36(46)29(42)16-34(49-20)53-38-22(3)51-35(18-31(38)44)54-37-21(2)50-33(17-30(37)43)52-25-8-11-39(4)24(15-25)6-7-28-27(39)9-12-40(5)26(10-13-41(28,40)47)23-14-32(45)48-19-23/h14,20-22,24-31,33-38,42-44,46-47H,6-13,15-19H2,1-5H3/t20-,21-,22-,24-,25+,26-,27+,28-,29+,30+,31+,33+,34+,35+,36-,37-,38-,39+,40-,41+/m1/s1",-5.2926,CC1OC(CC(O)C1O)OC1C(O)CC(OC2C(O)CC(OC3CCC4(C)C(CCC5C4CCC4(C)C(CCC54O)C4=CC(=O)OC4)C3)OC2C)OC1C,0,G1,B,None,None,Uncharged
B-150,"InChI=1S/C3H6O3.Na/c1-2(4)3(5)6;/h2,4H,1H3,(H,5,6);/q;+1/p-1",0.9505,CC(O)C([O-])=O,0,G1,B,None,None,Negative
B-153,"InChI=1S/C16H15Cl3O2/c1-20-13-7-3-11(4-8-13)15(16(17,18)19)12-5-9-14(21-2)10-6-12/h3-10,15H,1-2H3",-6.5386,COC1=CC=C(C=C1)C(C1=CC=C(OC)C=C1)C(Cl)(Cl)Cl,0.188807753,G5,B,None,None,Uncharged
B-154,"InChI=1S/C14H8O4/c15-10-6-5-9-11(14(10)18)13(17)8-4-2-1-3-7(8)12(9)16/h1-6,15,18H",-2.7785,OC1=CC=C2C(=O)C3=CC=CC=C3C(=O)C2=C1O,1.41075,G2,B,None,None,Uncharged
B-157,"InChI=1S/C5H5N5/c6-4-3-5(9-1-7-3)10-2-8-4/h1-2H,(H3,6,7,8,9,10)",-2.1179,NC1=C2NC=NC2=NC=N1,0.07105,G3,B,None,None,Uncharged
B-159,"InChI=1S/C15H14F3N3O4S2/c16-15(17,18)10-7-11-13(8-12(10)26(19,22)23)27(24,25)21-14(20-11)6-9-4-2-1-3-5-9/h1-5,7-8,14,20-21H,6H2,(H2,19,22,23)",-3.5913,NS(=O)(=O)C1=CC2=C(NC(CC3=CC=CC=C3)NS2(=O)=O)C=C1C(F)(F)F,0,G1,B,None,None,Uncharged
B-160,"InChI=1S/C10H12ClN3O3S/c1-2-9-13-7-4-6(11)8(18(12,16)17)3-5(7)10(15)14-9/h3-4,9,13H,2H2,1H3,(H,14,15)(H2,12,16,17)",-3.2859,CCC1NC(=O)C2=CC(=C(Cl)C=C2N1)S(N)(=O)=O,0.00705,G3,B,None,None,Uncharged
B-162,InChI=1S/CH4/h1H4,-2.8629,C,1.591274912,G4,B,None,None,Uncharged
B-167,InChI=1S/CHN/c1-2/h1H,1.5682,C#N,0,G1,B,None,None,Uncharged
B-169,"InChI=1S/C3H4/c1-3-2/h1H,2H3",-1.0417,CC#C,0.31585,G3,B,None,None,Uncharged
B-171,"InChI=1S/C2H7N/c1-2-3/h2-3H2,1H3",1.346,CC[NH3+],0,G1,B,None,None,Positive
B-174,"InChI=1S/CH3NO/c1-2-3/h3H,1H2",0.5768,ON=C,0,G1,B,None,None,Uncharged
B-176,InChI=1S/C2H4O/c1-2-3-1/h1-2H2,1.356,C1CO1,0,G1,B,None,None,Uncharged
B-177,InChI=1S/CHBr3/c2-1(3)4/h1H,-1.9113,BrC(Br)Br,0.05165,G3,B,None,None,Uncharged
B-180,"InChI=1S/C3H7I/c1-3(2)4/h3H,1-2H3",-2.0843,CC(C)I,0.05835,G3,B,None,None,Uncharged
B-181,"InChI=1S/C3H9N/c1-3(2)4/h3H,4H2,1-2H3",1.2283,CC(C)[NH3+],0,G1,B,None,None,Positive
B-182,InChI=1S/CHI3/c2-1(3)4/h1H,-3.5952,IC(I)I,0,G1,B,None,None,Uncharged
B-183,"InChI=1S/C3H7N/c1-3-2-4-3/h3-4H,2H2,1H3",1.2434,CC1C[NH2+]1,0,G1,B,None,None,Positive
B-184,"InChI=1S/C2H7AsO2/c1-3(2,4)5/h1-2H3,(H,4,5)",1.1612,C[As](C)([O-])=O,0,G1,B,None,None,Negative
B-190,"InChI=1S/C4H7NO/c1-4(2,6)3-5/h6H,1-2H3",1.07,CC(C)(O)C#N,0,G1,B,None,None,Uncharged
B-191,"InChI=1S/C2H2ClF3/c3-1-2(4,5)6/h1H2",-1.1098,FC(F)(F)CCl,0,G1,B,None,None,Uncharged
B-193,"InChI=1S/C2HBr3O2/c3-2(4,5)1(6)7/h(H,6,7)/p-1",-0.1713,[O-]C(=O)C(Br)(Br)Br,0,G1,B,None,None,Negative
B-194,"InChI=1S/C6H12O/c1-5(7)6(2,3)4/h1-4H3",-0.7219,CC(=O)C(C)(C)C,0,G1,B,None,None,Uncharged
B-196,"InChI=1S/C3H4Cl2O2/c1-3(4,5)2(6)7/h1H3,(H,6,7)",0.5455,CC(Cl)(Cl)C([O-])=O,0,G1,B,None,None,Negative
B-197,"InChI=1S/C3H5Cl3O/c1-2(7)3(4,5)6/h2,7H,1H3",-0.7574,CC(O)C(Cl)(Cl)Cl,0,G1,B,None,None,Uncharged
B-199,"InChI=1S/C2HClF2O2/c3-2(4,5)1(6)7/h(H,6,7)",0.8845,[O-]C(=O)C(F)(F)Cl,0,G1,B,None,None,Negative
B-201,"InChI=1S/C2Cl4F2/c3-1(4,5)2(6,7)8",-3.3093,FC(F)(Cl)C(Cl)(Cl)Cl,0,G1,B,None,None,Uncharged
B-202,"InChI=1S/C2Cl4F2/c3-1(4,7)2(5,6)8",-3.2301,FC(Cl)(Cl)C(F)(Cl)Cl,0.02055,G3,B,None,None,Uncharged
B-205,"InChI=1S/C10H16O/c1-9(2)7-4-5-10(9,3)8(11)6-7/h7H,4-6H2,1-3H3",-1.9784,CC1(C)C2CCC1(C)C(=O)C2,0.067450017,G5,B,None,None,Uncharged
B-206,"InChI=1S/C8H6N4O8/c13-1-7(19,2(14)10-5(17)9-1)8(20)3(15)11-6(18)12-4(8)16/h19-20H,(H2,9,10,13,14,17)(H2,11,12,15,16,18)",-1.9942,OC1(C(=O)NC(=O)[N-]C1=O)C1(O)C(=O)NC(=O)[N-]C1=O,0.1179,G3,B,None,None,Negative
B-207,"InChI=1S/C24H31FO6/c1-20(2)30-19-10-16-15-6-5-13-9-14(27)7-8-21(13,3)23(15,25)17(28)11-22(16,4)24(19,31-20)18(29)12-26/h7-9,15-17,19,26,28H,5-6,10-12H2,1-4H3/t15-,16-,17-,19+,21-,22-,23-,24+/m0/s1",-4.3158,CC1(C)OC2CC3C4CCC5=CC(=O)C=CC5(C)C4(F)C(O)CC3(C)C2(O1)C(=O)CO,0,G1,B,None,None,Uncharged
B-208,"InChI=1S/C4H9NO3/c1-4(2,3-6)5(7)8/h6H,3H2,1-2H3",1.4681,CC(C)(CO)[N+]([O-])=O,0,G1,B,None,None,PureChargeSeparation
B-209,"InChI=1S/C4H7Cl3O2/c1-2(5)4(6,7)3(8)9/h2-3,8-9H,1H3",-0.8666,CC(Cl)C(Cl)(Cl)C(O)O,0,G1,B,None,None,Uncharged
B-210,"InChI=1S/C10H5Cl7/c11-4-2-1-3-5(4)9(15)7(13)6(12)8(3,14)10(9,16)17/h1-5H",-6.3168,ClC1C=CC2C1C1(Cl)C(Cl)=C(Cl)C2(Cl)C1(Cl)Cl,0.435874151,G5,B,None,None,Uncharged
B-211,"InChI=1S/C18H21NO3/c1-19-8-7-18-11-4-5-13(20)17(18)22-16-14(21-2)6-3-10(15(16)18)9-12(11)19/h3-6,11-13,17,20H,7-9H2,1-2H3/t11-,12+,13-,17-,18-/m0/s1",-1.522,COC1=CC=C2CC3C4C=CC(O)C5OC1=C2C45CC[NH+]3C,0,G1,B,None,None,Positive
B-212,"InChI=1S/C19H23NO3/c1-3-22-15-7-4-11-10-13-12-5-6-14(21)18-19(12,8-9-20(13)2)16(11)17(15)23-18/h4-7,12-14,18,21H,3,8-10H2,1-2H3/t12-,13+,14-,18-,19-/m0/s1",-2.079,CCOC1=CC=C2CC3C4C=CC(O)C5OC1=C2C45CC[NH+]3C,0,G1,B,None,None,Positive
B-213,"InChI=1S/C20H21N3O/c1-13-12-16(6-11-19(13)23)20(24,14-2-7-17(21)8-3-14)15-4-9-18(22)10-5-15/h2-12,24H,21-23H2,1H3",-3.0272,CC1=CC(=CC=C1N)C(O)(C1=CC=C(N)C=C1)C1=CC=C(N)C=C1,0,G1,B,None,None,Uncharged
B-214,"InChI=1S/C19H16O/c20-19(16-10-4-1-5-11-16,17-12-6-2-7-13-17)18-14-8-3-9-15-18/h1-15,20H",-2.2596,OC(C1=CC=CC=C1)(C1=CC=CC=C1)C1=CC=CC=C1,0,G1,B,None,None,Uncharged
B-215,"InChI=1S/C11H10N2O3/c1-11(7-5-3-2-4-6-7)8(14)12-10(16)13-9(11)15/h2-6H,1H3,(H2,12,13,14,15,16)",-2.4581,CC1(C(=O)NC(=O)NC1=O)C1=CC=CC=C1,0.03905,G3,B,None,None,Uncharged
B-216,"InChI=1S/C20H14O4/c21-15-9-5-13(6-10-15)20(14-7-11-16(22)12-8-14)18-4-2-1-3-17(18)19(23)24-20/h1-12,21-22H",-2.9008,OC1=CC=C(C=C1)C1(OC(=O)C2=CC=CC=C12)C1=CC=C(O)C=C1,0.981066621,G4,B,None,None,Uncharged
B-217,"InChI=1S/C11H16N2O3/c1-4-5-11(6-7(2)3)8(14)12-10(16)13-9(11)15/h4,7H,1,5-6H2,2-3H3,(H2,12,13,14,15,16)",-2.1193,CC(C)CC1(CC=C)C(=O)NC(=O)NC1=O,0,G1,B,None,None,Uncharged
B-218,"InChI=1S/C14H11ClN2O4S/c15-11-6-5-8(7-12(11)22(16,20)21)14(19)10-4-2-1-3-9(10)13(18)17-14/h1-7,19H,(H,17,18)(H2,16,20,21)",-3.4507,NS(=O)(=O)C1=CC(=CC=C1Cl)C1(O)NC(=O)C2=CC=CC=C12,0,G1,B,None,None,Uncharged
B-219,"InChI=1S/C4H9NO4/c1-4(2-6,3-7)5(8)9/h6-7H,2-3H2,1H3",0.7724,CC(CO)(CO)[N+]([O-])=O,0,G1,B,None,None,PureChargeSeparation
B-220,"InChI=1S/C6H14O/c1-4-6(3,7)5-2/h7H,4-5H2,1-3H3",-0.38,CCC(C)(O)CC,0.01,G3,B,None,None,Uncharged
B-222,"InChI=1S/C5H11N2O2P/c1-4-9-10(8,5-6)7(2)3/h4H2,1-3H3",-0.2186,CCOP(=O)(C#N)N(C)C,0,G1,B,None,None,Uncharged
B-224,"InChI=1S/C20H34O8/c1-5-8-11-25-17(22)14-20(28-16(4)21,19(24)27-13-10-7-3)15-18(23)26-12-9-6-2/h5-15H2,1-4H3",-4.9058,CCCCOC(=O)CC(CC(=O)OCCCC)(OC(C)=O)C(=O)OCCCC,1.095899722,G4,B,None,None,Uncharged
B-226,"InChI=1S/C12H20O7/c1-4-17-9(13)7-12(16,11(15)19-6-3)8-10(14)18-5-2/h16H,4-8H2,1-3H3",-0.6285,CCOC(=O)CC(O)(CC(=O)OCC)C(=O)OCC,0.030773281,G5,B,None,None,Uncharged
B-227,"InChI=1S/C6H14O3/c1-2-6(3-7,4-8)5-9/h7-9H,2-5H2,1H3",0.8723,CCC(CO)(CO)CO,0,G1,B,None,None,Uncharged
B-228,"InChI=1S/C5H8N4O12/c10-6(11)18-1-5(2-19-7(12)13,3-20-8(14)15)4-21-9(16)17/h1-4H2",-3.8664,[O-][N+](=O)OCC(CO[N+]([O-])=O)(CO[N+]([O-])=O)CO[N+]([O-])=O,0,G1,B,None,None,PureChargeSeparation
B-229,"InChI=1S/C7H15NO2/c1-4-7(3,5-2)10-6(8)9/h4-5H2,1-3H3,(H2,8,9)",-1.5599,CCC(C)(CC)OC(N)=O,0,G1,B,None,None,Uncharged
B-230,"InChI=1S/C21H21O4P/c1-16-4-10-19(11-5-16)23-26(22,24-20-12-6-17(2)7-13-20)25-21-14-8-18(3)9-15-21/h4-15H,1-3H3",-6.0892,CC1=CC=C(OP(=O)(OC2=CC=C(C)C=C2)OC2=CC=C(C)C=C2)C=C1,0.051017378,G5,B,None,None,Uncharged
B-231,"InChI=1S/C12H24N2O4/c1-5-6-12(4,7-17-10(13)15)8-18-11(16)14-9(2)3/h9H,5-8H2,1-4H3,(H2,13,15)(H,14,16)",-2.9384,CCCC(C)(COC(N)=O)COC(=O)NC(C)C,0,G1,B,None,None,Uncharged
B-232,"InChI=1S/C12H27O3P/c1-4-7-10-14-16(13,12-9-6-3)15-11-8-5-2/h4-12H2,1-3H3",-2.6995,CCCCOP(=O)(CCCC)OCCCC,0,G1,B,None,None,Uncharged
B-234,"InChI=1S/C6H12N5O2PS2/c1-12-14(15,13-2)16-3-4-9-5(7)11-6(8)10-4/h3H2,1-2H3,(H4,7,8,9,10,11)",-3.069,COP(=S)(OC)SCC1=NC(N)=NC(N)=N1,0,G1,B,None,None,Uncharged
B-237,"InChI=1S/C10H18O/c1-5-10(4,11)8-6-7-9(2)3/h5,7,11H,1,6,8H2,2-4H3",-1.9871,CC(C)=CCCC(C)(O)C=C,0,G1,B,None,None,Uncharged
B-238,"InChI=1S/C2H3Br3/c3-1-2(4)5/h2H,1H2",-2.7272,BrCC(Br)Br,0,G1,B,None,None,Uncharged
B-239,"InChI=1S/C3H6Br2/c1-3(5)2-4/h3H,2H2,1H3",-2.1498,CC(Br)CBr,0,G1,B,None,None,Uncharged
B-242,"InChI=1S/C4H11N/c1-4(2)3-5/h4H,3,5H2,1-2H3",1.1359,CC(C)C[NH3+],0,G1,B,None,None,Positive
B-247,InChI=1S/C3H4Cl2/c1-3(5)2-4/h1-2H2,-1.7128,ClCC(Cl)=C,0,G1,B,None,None,Uncharged
B-248,"InChI=1S/C3H5ClO/c1-3(5)2-4/h2H2,1H3",-0.012,CC(=O)CCl,0,G1,B,None,None,Uncharged
B-249,"InChI=1S/C3H9NO/c1-3(5)2-4/h3,5H,2,4H2,1H3",1.1243,CC(O)C[NH3+],0,G1,B,None,None,Positive
B-250,"InChI=1S/C3H6Cl2/c1-2-3(4)5/h3H,2H2,1H3",-1.6217,CCC(Cl)Cl,0,G1,B,None,None,Uncharged
B-251,"InChI=1S/C2H3BrO2/c3-1-2(4)5/h1H2,(H,4,5)",1.1002,[O-]C(=O)CBr,0,G1,B,None,None,Negative
B-255,"InChI=1S/C2H4O3/c1-2(3)5-4/h4H,1H3",1.1189,CC(=O)OO,0,G1,B,None,Unstable,Uncharged
B-257,"InChI=1S/C2H2Cl2O2/c3-1(4)2(5)6/h1H,(H,5,6)",0.8896,[O-]C(=O)C(Cl)Cl,0,G1,B,None,None,Negative
B-259,"InChI=1S/C9H17NO5/c1-9(2,5-11)7(14)8(15)10-4-3-6(12)13/h7,11,14H,3-5H2,1-2H3,(H,10,15)(H,12,13)",0.6591,CC(C)(CO)C(O)C(=O)NCCC([O-])=O,0,G1,B,None,None,Negative
B-260,"InChI=1S/C7H10O4/c1-7(2)4(6(9)10)3-5(8)11-7/h4H,3H2,1-2H3,(H,9,10)/p-1/t4-/m1/s1",-1.2449,CC1(C)OC(=O)CC1C([O-])=O,0,G1,B,None,None,Negative
B-263,"InChI=1S/C11H14N4O2S2/c1-7(2)10-13-14-11(18-10)15-19(16,17)9-5-3-8(12)4-6-9/h3-7H,12H2,1-2H3,(H,14,15)",-3.4141,CC(C)C1=NN=C([N-]S(=O)(=O)C2=CC=C(N)C=C2)S1,0,G1,B,None,None,Negative
B-264,"InChI=1S/C18H22O2/c1-17(2,15-11-7-5-8-12-15)19-20-18(3,4)16-13-9-6-10-14-16/h5-14H,1-4H3",-5.7692,CC(C)(OOC(C)(C)C1=CC=CC=C1)C1=CC=CC=C1,0.014646629,G3,B,None,None,Uncharged
B-265,"InChI=1S/C11H16O/c1-4-11(2,3)9-5-7-10(12)8-6-9/h5-8,12H,4H2,1-3H3",-2.9902,CCC(C)(C)C1=CC=C(O)C=C1,0.026726756,G3,B,None,None,Uncharged
B-269,"InChI=1S/C21H30O3/c1-12(22)16-6-7-17-15-5-4-13-10-14(23)8-9-20(13,2)19(15)18(24)11-21(16,17)3/h10,15-19,24H,4-9,11H2,1-3H3/t15-,16?,17-,18+,19+,20-,21+/m0/s1",-3.8202,CC(=O)C1CCC2C3CCC4=CC(=O)CCC4(C)C3C(O)CC12C,0,G1,B,None,None,Uncharged
B-270,"InChI=1S/C11H12ClNO3S/c1-13-10(14)6-7-17(15,16)11(13)8-2-4-9(12)5-3-8/h2-5,11H,6-7H2,1H3",-2.0394,CN1C(C2=CC=C(Cl)C=C2)S(=O)(=O)CCC1=O,0,G1,B,None,None,Uncharged
B-272,"InChI=1S/C14H18N2O5/c1-7-10(9(3)17)8(2)13(16(20)21)11(14(4,5)6)12(7)15(18)19/h1-6H3",-5.1901,CC(=O)C1=C(C)C(=C(C(=C1C)[N+]([O-])=O)C(C)(C)C)[N+]([O-])=O,0,G1,B,None,None,PureChargeSeparation
B-273,"InChI=1S/C24H40O5/c1-13(4-7-21(28)29)16-5-6-17-22-18(12-20(27)24(16,17)3)23(2)9-8-15(25)10-14(23)11-19(22)26/h13-20,22,25-27H,4-12H2,1-3H3,(H,28,29)/t13-,14+,15-,16-,17+,18+,19-,20+,22+,23+,24-/m1/s1",-3.3682,CC(CCC([O-])=O)C1CCC2C3C(O)CC4CC(O)CCC4(C)C3CC(O)C12C,0,G1,B,None,None,Negative
B-274,"InChI=1S/C14H8O5/c15-8-5-9(16)14(19)11-10(8)12(17)6-3-1-2-4-7(6)13(11)18/h1-5,15-16,19H",-4.6024,OC1=CC(O)=C2C(=O)C3=CC=CC=C3C(=O)C2=C1O,0,G1,B,None,None,Uncharged
B-276,"InChI=1S/C19H15ClO4/c1-11(21)10-15(12-6-8-13(20)9-7-12)17-18(22)14-4-2-3-5-16(14)24-19(17)23/h2-9,15,23H,10H2,1H3",-5.836,CC(=O)CC(C1=CC=C(Cl)C=C1)C1=C([O-])C2=CC=CC=C2OC1=O,0,G1,B,None,None,Negative
B-277,"InChI=1S/C20H16O4/c21-15-9-5-13(6-10-15)19(14-7-11-16(22)12-8-14)17-3-1-2-4-18(17)20(23)24/h1-12,19,21-22H,(H,23,24)",-3.2626,OC1=CC=C(C=C1)C(C1=CC=C(O)C=C1)C1=CC=CC=C1C([O-])=O,0,G1,B,None,None,Negative
B-279,"InChI=1S/C15H11NO2/c1-8-6-7-11-12(13(8)16)15(18)10-5-3-2-4-9(10)14(11)17/h2-7H,16H2,1H3",-5.8541,CC1=CC=C2C(=O)C3=CC=CC=C3C(=O)C2=C1N,0,G1,B,None,None,Uncharged
B-280,"InChI=1S/C14H8O8S2/c15-13-7-3-1-5-9(23(17,18)19)11(7)14(16)12-8(13)4-2-6-10(12)24(20,21)22/h1-6H,(H,17,18,19)(H,20,21,22)",1.2572,[O-]S(=O)(=O)C1=CC=CC2=C1C(=O)C1=C(C=CC=C1C2=O)S([O-])(=O)=O,0,G1,B,None,None,Negative
B-282,"InChI=1S/C18H22N2/c1-19-12-14-20(15-13-19)18(16-8-4-2-5-9-16)17-10-6-3-7-11-17/h2-11,18H,12-15H2,1H3",-2.4255,CN1CC[NH+](CC1)C(C1=CC=CC=C1)C1=CC=CC=C1,0.44775,G3,B,None,None,Positive
B-284,"InChI=1S/C14H14O3/c1-14(2,3)13(17)10-11(15)8-6-4-5-7-9(8)12(10)16/h4-7,10H,1-3H3",-4.107,CC(C)(C)C(=O)[C-]1C(=O)C2=CC=CC=C2C1=O,0,G1,B,None,None,Negative
B-285,"InChI=1S/C22H30O5/c1-12-8-14-15-5-7-22(27,18(26)11-23)21(15,3)10-17(25)19(14)20(2)6-4-13(24)9-16(12)20/h4,6,9,12,14-15,17,19,23,25,27H,5,7-8,10-11H2,1-3H3/t12-,14-,15-,17-,19+,20-,21-,22-/m0/s1",-3.4942,CC1CC2C3CCC(O)(C(=O)CO)C3(C)CC(O)C2C2(C)C=CC(=O)C=C12,0,G1,B,None,None,Uncharged
B-286,"InChI=1S/C24H40O4/c1-14(4-9-22(27)28)18-7-8-19-17-6-5-15-12-16(25)10-11-23(15,2)20(17)13-21(26)24(18,19)3/h14-21,25-26H,4-13H2,1-3H3,(H,27,28)/t14-,15-,16-,17+,18-,19+,20+,21+,23+,24-/m1/s1",-3.9544,CC(CCC([O-])=O)C1CCC2C3CCC4CC(O)CCC4(C)C3CC(O)C12C,0,G1,B,None,None,Negative
B-287,"InChI=1S/C10H9NO/c1-11-7-6-10(12)8-4-2-3-5-9(8)11/h2-7H,1H3",-0.9818,CN1C=CC(=O)C2=CC=CC=C12,0,G1,B,None,None,Uncharged
B-289,"InChI=1S/C23H22O6/c1-11(2)16-8-14-15(28-16)6-5-12-22(24)21-13-7-18(25-3)19(26-4)9-17(13)27-10-20(21)29-23(12)14/h5-7,9,16,20-21H,1,8,10H2,2-4H3/t16-,20-,21+/m1/s1",-6.2949,COC1=CC2=C(C=C1OC)C1C(CO2)OC2=C3CC(OC3=CC=C2C1=O)C(C)=C,0,G1,B,None,None,Uncharged
B-290,"InChI=1S/C6H18O24P6/c7-31(8,9)25-1-2(26-32(10,11)12)4(28-34(16,17)18)6(30-36(22,23)24)5(29-35(19,20)21)3(1)27-33(13,14)15/h1-6H,(H2,7,8,9)(H2,10,11,12)(H2,13,14,15)(H2,16,17,18)(H2,19,20,21)(H2,22,23,24)/t1-,2-,3-,4+,5-,6-",0.1804,[O-]P([O-])(=O)OC1C(OP([O-])([O-])=O)C(OP([O-])([O-])=O)C(OP([O-])([O-])=O)C(OP([O-])([O-])=O)C1OP([O-])([O-])=O,0,G1,B,None,None,Negative
B-291,"InChI=1S/C17H20N4O6/c1-7-3-9-10(4-8(7)2)21(5-11(23)14(25)12(24)6-22)15-13(18-9)16(26)20-17(27)19-15/h3-4,11-12,14,22-25H,5-6H2,1-2H3,(H,20,26,27)",-3.6478,CC1=CC2=C(C=C1C)N(CC(O)C(O)C(O)CO)C1=NC(=O)[N-]C(=O)C1=N2,0.041678238,G5,B,None,None,Negative
B-292,InChI=1S/C18H14/c1-3-9-15(10-4-1)17-13-7-8-14-18(17)16-11-5-2-6-12-16/h1-14H,-5.2692,C1=CC=C(C=C1)C1=CC=CC=C1C1=CC=CC=C1,0,G1,B,None,None,Uncharged
B-293,"InChI=1S/C20H22N2O2/c1-3-13-12-22-9-7-14(13)10-19(22)20(23)16-6-8-21-18-5-4-15(24-2)11-17(16)18/h3-6,8,11,13-14,19H,1,7,9-10,12H2,2H3",-5.0313,COC1=CC2=C(C=CN=C2C=C1)C(=O)C1CC2CC[NH+]1CC2C=C,0,G1,B,None,None,Positive
B-294,"InChI=1S/C14H8O4/c15-7-1-3-9-11(5-7)14(18)10-4-2-8(16)6-12(10)13(9)17/h1-6,15-16H",-5.8892,OC1=CC=C2C(=O)C3=CC([O-])=CC=C3C(=O)C2=C1,0,G1,B,None,None,Negative
B-296,InChI=1S/C20H14O4/c21-19(23-15-9-3-1-4-10-15)17-13-7-8-14-18(17)20(22)24-16-11-5-2-6-12-16/h1-14H,-6.5891,O=C(OC1=CC=CC=C1)C1=CC=CC=C1C(=O)OC1=CC=CC=C1,0,G1,B,None,None,Uncharged
B-298,"InChI=1S/C28H46O4/c1-3-5-7-9-11-13-15-19-23-31-27(29)25-21-17-18-22-26(25)28(30)32-24-20-16-14-12-10-8-6-4-2/h17-18,21-22H,3-16,19-20,23-24H2,1-2H3",-9.3076,CCCCCCCCCCOC(=O)C1=CC=CC=C1C(=O)OCCCCCCCCCC,0,G1,B,None,None,Uncharged
B-299,"InChI=1S/C15H14O4/c1-15(2)7-6-10-12(19-15)8-11-9(14(10)17-3)4-5-13(16)18-11/h4-8H,1-3H3",-3.81,COC1=C2C=CC(=O)OC2=CC2=C1C=CC(C)(C)O2,0,G1,B,None,None,Uncharged
B-300,"InChI=1S/C7H7ClN4O2/c1-11-4-3(9-6(8)10-4)5(13)12(2)7(11)14/h1-2H3,(H,9,10)",-1.5075,CN1C2=C([N-]C(Cl)=N2)C(=O)N(C)C1=O,0,G1,B,None,None,Negative
B-301,"InChI=1S/C14H9ClO3/c15-10-7-5-9(6-8-10)13(16)11-3-1-2-4-12(11)14(17)18/h1-8H,(H,17,18)",-2.7171,[O-]C(=O)C1=CC=CC=C1C(=O)C1=CC=C(Cl)C=C1,0,G1,B,None,None,Negative
B-303,"InChI=1S/C15H13NO3/c1-10-5-4-6-11(9-10)16-14(17)12-7-2-3-8-13(12)15(18)19/h2-9H,1H3,(H,16,17)(H,18,19)",-2.407,CC1=CC=CC(NC(=O)C2=CC=CC=C2C([O-])=O)=C1,0,G1,B,None,None,Negative
B-304,"InChI=1S/C10H9NO6S2/c11-9-3-4-10(19(15,16)17)8-5-6(18(12,13)14)1-2-7(8)9/h1-5H,11H2,(H,12,13,14)(H,15,16,17)",-0.2592,NC1=CC=C(C2=CC(=CC=C12)S([O-])(=O)=O)S([O-])(=O)=O,0,G1,B,None,None,Negative
B-305,"InChI=1S/C10H9NO6S2/c11-9-3-4-10(19(15,16)17)7-2-1-6(5-8(7)9)18(12,13)14/h1-5H,11H2,(H,12,13,14)(H,15,16,17)",-1.643,NC1=CC=C(C2=CC=C(C=C12)S([O-])(=O)=O)S([O-])(=O)=O,0,G1,B,None,None,Negative
B-307,"InChI=1S/C14H11N/c15-11-14(12-7-3-1-4-8-12)13-9-5-2-6-10-13/h1-10,14H",-2.9437,N#CC(C1=CC=CC=C1)C1=CC=CC=C1,0,G1,B,None,None,Uncharged
B-309,"InChI=1S/C10H7NO2/c12-10(13)8-5-1-3-7-4-2-6-11-9(7)8/h1-6H,(H,12,13)",-1.7447,[O-]C(=O)C1=CC=CC2=CC=CN=C12,0,G1,B,None,None,Negative
B-310,"InChI=1S/C10H12O4/c1-12-8-4-7(6-11)5-9(13-2)10(8)14-3/h4-6H,1-3H3",-2.1195,COC1=CC(C=O)=CC(OC)=C1OC,0,G1,B,None,None,Uncharged
B-311,"InChI=1S/C12H16O3/c1-9(2)7-8-15-12(14)10-5-3-4-6-11(10)13/h3-6,9,13H,7-8H2,1-2H3",-3.1572,CC(C)CCOC(=O)C1=CC=CC=C1O,0,G1,B,None,None,Uncharged
B-312,"InChI=1S/C9H10O4/c10-5-6-13-9(12)7-3-1-2-4-8(7)11/h1-4,10-11H,5-6H2",-1.1567,OCCOC(=O)C1=CC=CC=C1O,0,G1,B,None,None,Uncharged
B-313,"InChI=1S/C13H14N2O3/c1-8(16)15-12(13(17)18)6-9-7-14-11-5-3-2-4-10(9)11/h2-5,7,12,14H,6H2,1H3,(H,15,16)(H,17,18)/p-1/t12-/m0/s1",-2.3122,CC(=O)NC(CC1=CNC2=CC=CC=C12)C([O-])=O,0,G1,B,None,None,Negative
B-314,"InChI=1S/C5H3ClN4/c6-4-3-5(9-1-7-3)10-2-8-4/h1-2H,(H,7,8,9,10)",-1.4901,ClC1=C2NC=NC2=NC=N1,0,G1,B,None,None,Uncharged