ID,InChI,Solubility,SMILEScurated,SD,Group,Dataset,Composition,Error,Charge
B-1963,"InChI=1S/C9H18/c1-8-5-4-6-9(2,3)7-8/h8H,4-7H2,1-3H3",-4.8532,CC1CCCC(C)(C)C1,0,G1,B,None,None,Uncharged
B-1964,"InChI=1S/C5H8N2O2/c6-2-1-3-7-4-5(8)9/h7H,1,3-4H2,(H,8,9)",0.3237,[O-]C(=O)C[NH2+]CCC#N,0,G1,B,None,None,Zwitterion
B-1965,"InChI=1S/C6H13NO2/c1-3-4(2)5(7)6(8)9/h4-5H,3,7H2,1-2H3,(H,8,9)/t4-,5+/m1/s1",-0.3895,CCC(C)C([NH3+])C([O-])=O,0,G1,B,None,None,Zwitterion
B-1966,"InChI=1S/C21H24FNO2/c22-19-10-8-17(9-11-19)20(24)7-4-14-23-15-12-21(25,13-16-23)18-5-2-1-3-6-18/h1-3,5-6,8-11,25H,4,7,12-16H2",-4.1183,OC1(CC[NH+](CCCC(=O)C2=CC=C(F)C=C2)CC1)C1=CC=CC=C1,0.62415,G2,B,None,None,Positive
B-1967,"InChI=1S/C7H16O/c1-7(2,3)5-4-6-8/h8H,4-6H2,1-3H3",-1.5402,CC(C)(C)CCCO,0.0054,G3,B,None,None,Uncharged
B-1968,"InChI=1S/C5H9N3O4/c6-3(9)1-2(4(10)11)8-5(7)12/h2H,1H2,(H2,6,9)(H,10,11)(H3,7,8,12)/t2-/m0/s1",-0.511,NC(=O)CC(NC(N)=O)C([O-])=O,0,G1,B,None,None,Negative
B-1969,"InChI=1S/C16H14Cl2N2O2/c1-19(2)16(22)20(12-8-9-13(17)14(18)10-12)15(21)11-6-4-3-5-7-11/h3-10H,1-2H3",-4.3238,CN(C)C(=O)N(C(=O)C1=CC=CC=C1)C1=CC=C(Cl)C(Cl)=C1,0,G1,B,None,None,Uncharged
B-1970,"InChI=1S/CH3ClN2O/c2-4-1(3)5/h(H3,3,4,5)",0.3256,NC(=O)NCl,0,G1,B,None,None,Uncharged
B-1971,"InChI=1S/C10H19N3O4/c1-6(2)3-7(11)10(17)13-4-8(14)12-5-9(15)16/h6-7H,3-5,11H2,1-2H3,(H,12,14)(H,13,17)(H,15,16)/t7-/m0/s1",0.2124,CC(C)CC([NH3+])C(=O)NCC(=O)NCC([O-])=O,0,G1,B,None,None,Zwitterion
B-1972,"InChI=1S/C7H14O7/c8-1-3(10)5(12)7(14)6(13)4(11)2-9/h1,3-7,9-14H,2H2",-0.3226,OCC(O)C(O)C(O)C(O)C(O)C=O,0,G1,B,None,None,Uncharged
B-1973,"InChI=1S/C13H10N2O3/c16-12-7-6-10(8-11(12)13(17)18)15-14-9-4-2-1-3-5-9/h1-8,14H,(H,17,18)/b15-10+",-3.0559,OC1=CC=C(C=C1C([O-])=O)N=NC1=CC=CC=C1,0,G1,B,None,None,Negative
B-1974,"InChI=1S/C11H12O4/c1-15-9-4-2-8(3-5-9)10(12)6-7-11(13)14/h2-5H,6-7H2,1H3,(H,13,14)",-1.0632,COC1=CC=C(C=C1)C(=O)CCC([O-])=O,0,G1,B,None,None,Negative
B-1975,"InChI=1S/C5H11N3O2/c1-2-4(5(9)10)7-3-8-6/h3-4H,2,6H2,1H3,(H,7,8)(H,9,10)",-0.8608,CCC(NC=[NH+]N)C([O-])=O,0,G1,B,None,None,Zwitterion
B-1976,"InChI=1S/C7H5BrO2/c8-5-1-3-6(9)7(10)4-2-5/h1-4H,(H,9,10)",-3.5629,[O-]C1=CC=C(Br)C=CC1=O,0,G1,B,None,None,Negative
B-1977,"InChI=1S/C12H18Br6/c13-7-1-2-8(14)10(16)5-6-12(18)11(17)4-3-9(7)15/h7-12H,1-6H2",-7.8728,BrC1CCC(Br)C(Br)CCC(Br)C(Br)CCC1Br,0,G1,B,None,None,Uncharged
B-1978,"InChI=1S/C8H16O3/c1-6(2)5-11-7(9)8(3,4)10/h6,10H,5H2,1-4H3",-0.7276,CC(C)COC(=O)C(C)(C)O,0,G1,B,None,None,Uncharged
B-1979,"InChI=1S/C11H13NO3/c13-10-4-2-1-3-9(10)11(14)12-5-7-15-8-6-12/h1-4,13H,5-8H2",-1.7037,OC1=CC=CC=C1C(=O)N1CCOCC1,0,G1,B,None,None,Uncharged
B-1980,InChI=1S/C6H3Cl2NO2/c7-4-2-1-3-5(6(4)8)9(10)11/h1-3H,-3.4881,[O-][N+](=O)C1=CC=CC(Cl)=C1Cl,0.014786486,G3,B,None,None,PureChargeSeparation
B-1981,"InChI=1S/C5H8Br4/c6-1-5(2-7,3-8)4-9/h1-4H2",-5.3844,BrCC(CBr)(CBr)CBr,0,G1,B,None,None,Uncharged
B-1982,"InChI=1S/C12H28O5P2S2/c1-5-9-13-18(20,14-10-6-2)17-19(21,15-11-7-3)16-12-8-4/h5-12H2,1-4H3",-4.1009,CCCOP(=S)(OCCC)OP(=S)(OCCC)OCCC,0,G1,B,None,None,Uncharged
B-1983,"InChI=1S/C14H12N2/c1-9-5-7-15-13-11(9)3-4-12-10(2)6-8-16-14(12)13/h3-8H,1-2H3",-3.9686,CC1=CC=NC2=C1C=CC1=C2N=CC=C1C,0,G1,B,None,None,Uncharged
B-1984,"InChI=1S/C6H10O4/c1-3-5(7)9-10-6(8)4-2/h3-4H2,1-2H3",-0.9634,CCC(=O)OOC(=O)CC,0,G1,B,None,None,Uncharged
B-1987,"InChI=1S/C9H9ClO3/c1-6(9(11)12)13-8-4-2-7(10)3-5-8/h2-6H,1H3,(H,11,12)",-2.1351,CC(OC1=CC=C(Cl)C=C1)C([O-])=O,0,G1,B,None,None,Negative
B-1988,"InChI=1S/C3H9N3/c1-6(2)3(4)5/h1-2H3,(H3,4,5)",-1.7306,CN(C)C(N)=[NH2+],0,G1,B,None,None,Positive
B-1989,"InChI=1S/C11H10O2/c12-11(13)10-7-3-5-8-4-1-2-6-9(8)10/h1-2,4,6-7H,3,5H2,(H,12,13)",-2.7939,[O-]C(=O)C1=CCCC2=CC=CC=C12,0,G1,B,None,None,Negative
B-1990,"InChI=1S/C7H16O7/c8-1-3(10)5(12)7(14)6(13)4(11)2-9/h3-14H,1-2H2",0.3722,OCC(O)C(O)C(O)C(O)C(O)CO,0,G1,B,None,None,Uncharged
B-1991,"InChI=1S/C6H9NO/c8-7-6-4-2-1-3-5-6/h2,4,8H,1,3,5H2/b7-6-",-0.7034,ON=C1CCCC=C1,0,G1,B,None,None,Uncharged
B-1993,"InChI=1S/C5H7NS/c1-2-3-4-6-5-7/h2H,1,3-4H2",-2.391,C=CCCN=C=S,0,G1,B,None,None,Uncharged
B-1994,"InChI=1S/C9H9Cl2NO3/c10-5-1-4(2-6(11)8(5)13)3-7(12)9(14)15/h1-2,7,13H,3,12H2,(H,14,15)/t7-/m0/s1",-0.796,[NH3+]C(CC1=CC(Cl)=C([O-])C(Cl)=C1)C([O-])=O,0,G1,B,None,None,Zwitterion
B-1995,"InChI=1S/C3H4ClN5/c4-1-7-2(5)9-3(6)8-1/h(H4,5,6,7,8,9)",-2.3849,NC1=NC(Cl)=NC(N)=N1,0,G1,B,None,None,Uncharged
B-1996,"InChI=1S/C8H16N2O2/c1-3-7(11)9-5-6-10-8(12)4-2/h3-6H2,1-2H3,(H,9,11)(H,10,12)",0.3746,CCC(=O)NCCNC(=O)CC,0,G1,B,None,None,Uncharged
B-1997,InChI=1S/C14H8Cl4/c15-10-7-5-9(6-8-10)13(14(17)18)11-3-1-2-4-12(11)16/h1-8H,-6.3563,ClC(Cl)=C(C1=CC=C(Cl)C=C1)C1=CC=CC=C1Cl,0,G1,B,None,None,Uncharged
B-1998,InChI=1S/C6H6N4O2Se/c1-9-4-3(7-13-8-4)5(11)10(2)6(9)12/h1-2H3,-2.2994,CN1C2=N[Se]N=C2C(=O)N(C)C1=O,0,G1,B,None,None,Uncharged
B-1999,"InChI=1S/C5H3BrO3/c6-3-1-4(5(7)8)9-2-3/h1-2H,(H,7,8)",-1.1841,[O-]C(=O)C1=CC(Br)=CO1,0,G1,B,None,None,Negative
B-2001,"InChI=1S/C16H21Cl2NO2/c1-12-5-2-3-8-19(12)9-4-10-21-16(20)13-6-7-14(17)15(18)11-13/h6-7,11-12H,2-5,8-10H2,1H3",-4.2178,CC1CCCC[NH+]1CCCOC(=O)C1=CC=C(Cl)C(Cl)=C1,0,G1,B,None,None,Positive
B-2002,InChI=1S/C8H2Cl4N2/c9-3-4(10)6(12)8-7(5(3)11)13-1-2-14-8/h1-2H,-5.428,ClC1=C(Cl)C2=NC=CN=C2C(Cl)=C1Cl,0,G1,B,None,None,Uncharged
B-2003,"InChI=1S/C9H20/c1-8(2)6-7-9(3,4)5/h8H,6-7H2,1-5H3",-5.0474,CC(C)CCC(C)(C)C,0,G1,B,None,None,Uncharged
B-2004,"InChI=1S/C7H15NO2/c1-4-8(5-2)7(9)10-6-3/h4-6H2,1-3H3",-1.0651,CCOC(=O)N(CC)CC,0,G1,B,None,None,Uncharged
B-2005,"InChI=1S/C13H10O4/c14-9-6-10(15)12(11(16)7-9)13(17)8-4-2-1-3-5-8/h1-7,14-16H",-1.8708,OC1=CC(O)=C(C(=O)C2=CC=CC=C2)C([O-])=C1,0,G1,B,None,None,Negative
B-2006,"InChI=1S/C12H20O10/c13-1-5-7(15)9(17)11(21-5)3-20-12(4-19-11)10(18)8(16)6(2-14)22-12/h5-10,13-18H,1-4H2/t5-,6-,7-,8-,9+,10+,11?,12?/m1/s1",-0.0058,OCC1OC2(COC3(CO2)OC(CO)C(O)C3O)C(O)C1O,0,G1,B,None,None,Uncharged
B-2007,"InChI=1S/C12H16N4O2S2/c1-8(2)7-11-14-15-12(19-11)16-20(17,18)10-5-3-9(13)4-6-10/h3-6,8H,7,13H2,1-2H3,(H,15,16)",-3.8226,CC(C)CC1=NN=C([N-]S(=O)(=O)C2=CC=C(N)C=C2)S1,0,G1,B,None,None,Negative
B-2008,"InChI=1S/C14H20Br2N2/c1-18(12-5-3-2-4-6-12)9-10-7-11(15)8-13(16)14(10)17/h7-8,12H,2-6,9,17H2,1H3",-1.9733,C[NH+](CC1=CC(Br)=CC(Br)=C1N)C1CCCCC1,0,G1,B,None,None,Positive
B-2009,"InChI=1S/C17H16Cl2N2O5/c18-16(19)17(23)20(9-10-22)11-12-1-5-14(6-2-12)26-15-7-3-13(4-8-15)21(24)25/h1-8,16,22H,9-11H2",-5.1241,OCCN(CC1=CC=C(OC2=CC=C(C=C2)[N+]([O-])=O)C=C1)C(=O)C(Cl)Cl,0,G1,B,None,None,PureChargeSeparation
B-2010,"InChI=1S/C12H22O4/c1-2-3-4-5-6-7-8-9-10(11(13)14)12(15)16/h10H,2-9H2,1H3,(H,13,14)(H,15,16)",-3.3016,CCCCCCCCCC(C([O-])=O)C([O-])=O,0,G1,B,None,None,Negative
B-2011,"InChI=1S/C8H3Cl2F3N2/c9-3-1-2-4-6(5(3)10)15-7(14-4)8(11,12)13/h1-2H,(H,14,15)",-3.5677,FC(F)(F)C1=NC2=CC=C(Cl)C(Cl)=C2N1,0,G1,B,None,None,Uncharged
B-2012,"InChI=1S/C14H18N2O3/c1-2-14(11(17)15-13(19)16-12(14)18)10-6-8-3-4-9(5-8)7-10/h6,8-9H,2-5,7H2,1H3,(H2,15,16,17,18,19)",-2.7696,CCC1(C(=O)NC(=O)NC1=O)C1=CC2CCC(C2)C1,0.063687012,G5,B,None,None,Uncharged
B-2013,"InChI=1S/C5H8O4/c1-3(5(8)9)2-4(6)7/h3H,2H2,1H3,(H,6,7)(H,8,9)/t3-/m1/s1",0.6311,CC(CC([O-])=O)C([O-])=O,0,G1,B,None,None,Negative
B-2014,"InChI=1S/C6H13NO6/c7-3(6(12)13)5(11)4(10)2(9)1-8/h2-5,8-11H,1,7H2,(H,12,13)",-0.859,[NH3+]C(C(O)C(O)C(O)CO)C([O-])=O,0,G1,B,None,None,Zwitterion
B-2015,"InChI=1S/C15H17N/c1-3-7-14(8-4-1)11-12-16-13-15-9-5-2-6-10-15/h1-10,16H,11-13H2",-2.7229,C(CC1=CC=CC=C1)[NH2+]CC1=CC=CC=C1,0,G1,B,None,None,Positive
B-2016,"InChI=1S/C10H13NO/c1-3-9-4-6-10(7-5-9)11-8(2)12/h4-7H,3H2,1-2H3,(H,11,12)",-2.1453,CCC1=CC=C(NC(C)=O)C=C1,0,G1,B,None,None,Uncharged
B-2017,"InChI=1S/C11H22O3/c12-10-8-6-4-2-1-3-5-7-9-11(13)14/h12H,1-10H2,(H,13,14)/p-1",-2.7039,OCCCCCCCCCCC([O-])=O,0,G1,B,None,None,Negative
B-2018,"InChI=1S/C17H18O6/c1-9-5-10(18)6-14(22-4)17(9)16(19)15-12(21-3)7-11(20-2)8-13(15)23-17/h6-9H,5H2,1-4H3",-3.699,COC1=CC(OC)=C2C(OC3(C(C)CC(=O)C=C3OC)C2=O)=C1,0,G1,B,None,None,Uncharged
B-2019,"InChI=1S/C6H10O3/c1-3-9-5(2)6(8)4-7/h4-5H,3H2,1-2H3",-0.1554,CCOC(C)C(=O)C=O,0,G1,B,None,None,Uncharged
B-2020,"InChI=1S/C23H15ClO3/c24-16-12-10-15(11-13-16)19(14-6-2-1-3-7-14)23(27)20-21(25)17-8-4-5-9-18(17)22(20)26/h1-13,19-20H",-3.5738,ClC1=CC=C(C=C1)C(C(=O)[C-]1C(=O)C2=CC=CC=C2C1=O)C1=CC=CC=C1,0,G1,B,None,None,Negative
B-2021,"InChI=1S/C19H14/c1-13-12-15-7-3-4-8-16(15)18-11-10-14-6-2-5-9-17(14)19(13)18/h2-12H,1H3",-6.592,CC1=CC2=C(C=CC=C2)C2=C1C1=C(C=CC=C1)C=C2,0,G1,B,None,None,Uncharged
B-2022,"InChI=1S/C20H16/c1-13-14(2)20-17-9-4-3-7-15(17)11-12-19(20)18-10-6-5-8-16(13)18/h3-12H,1-2H3",-7.0109,CC1=C(C)C2=C(C=CC3=C2C=CC=C3)C2=C1C=CC=C2,0,G1,B,None,None,Uncharged
B-2023,"InChI=1S/C20H16/c1-2-16-18-10-6-4-8-15(18)13-20-17-9-5-3-7-14(17)11-12-19(16)20/h3-13H,2H2,1H3",-6.796,CCC1=C2C=CC=CC2=CC2=C1C=CC1=C2C=CC=C1,0.018,G3,B,None,None,Uncharged
B-2024,"InChI=1S/C6H8N2O4S2/c7-13(9,10)5-2-1-3-6(4-5)14(8,11)12/h1-4H,(H2,7,9,10)(H2,8,11,12)",-2.1693,NS(=O)(=O)C1=CC(=CC=C1)S(N)(=O)=O,0,G1,B,None,None,Uncharged
B-2025,"InChI=1S/C7H9NO/c1-6-3-7(2)5-8(9)4-6/h3-5H,1-2H3",0.9095,CC1=C[N+]([O-])=CC(C)=C1,0,G1,B,None,None,PureChargeSeparation
B-2026,"InChI=1S/C6H8N2/c7-5-6-3-1-2-4-8-6/h1-4H,5,7H2",0.966,[NH3+]CC1=CC=CC=N1,0,G1,B,None,None,Positive
B-2027,"InChI=1S/C6H8N2/c7-5-6-1-3-8-4-2-6/h1-4H,5,7H2",0.966,[NH3+]CC1=CC=NC=C1,0,G1,B,None,None,Positive
B-2028,"InChI=1S/C10H19N2O4PS/c1-5-15-17(14,16-6-2)18-7-9(13)12-10(3,4)8-11/h5-7H2,1-4H3,(H,12,13)",-0.6237,CCOP(=O)(OCC)SCC(=O)NC(C)(C)C#N,0,G1,B,None,None,Uncharged
B-2029,"InChI=1S/C10H16NO3PS/c1-3-12-15(16,13-4-2)14-10-7-5-9(11)6-8-10/h5-8H,3-4,11H2,1-2H3",-2.826,CCOP(=S)(OCC)OC1=CC=C(N)C=C1,0,G1,B,None,None,Uncharged
B-2030,InChI=1S/C10H6Cl2N2/c11-8-6-9(12)14-10(13-8)7-4-2-1-3-5-7/h1-6H,-4.9544,ClC1=CC(Cl)=NC(=N1)C1=CC=CC=C1,0,G1,B,None,None,Uncharged
B-2031,"InChI=1S/C10H20/c1-2-3-4-7-10-8-5-6-9-10/h10H,2-9H2,1H3",-6.0863,CCCCCC1CCCC1,0,G1,B,None,None,Uncharged
B-2032,"InChI=1S/C17H21N3O2/c1-14-13-16(20(9-11-21)10-12-22)7-8-17(14)19-18-15-5-3-2-4-6-15/h2-8,13,21-22H,9-12H2,1H3",-4.1254,CC1=CC(=CC=C1N=NC1=CC=CC=C1)N(CCO)CCO,0,G1,B,None,None,Uncharged
B-2033,"InChI=1S/C12H14N4O3S/c1-8-14-11(7-12(15-8)19-2)16-20(17,18)10-5-3-9(13)4-6-10/h3-7H,13H2,1-2H3,(H,14,15,16)",-2.543,COC1=CC(NS(=O)(=O)C2=CC=C(N)C=C2)=NC(C)=N1,0,G1,B,None,None,Uncharged
B-2034,"InChI=1S/C9H6ClNO3S/c10-5-2-1-3-6-8(5)11(4-7(12)13)9(14)15-6/h1-3H,4H2,(H,12,13)",-2.6087,[O-]C(=O)CN1C(=O)SC2=CC=CC(Cl)=C12,0,G1,B,None,None,Negative
B-2035,"InChI=1S/C3H8N4O2/c4-6-2(8)1-3(9)7-5/h1,4-5H2,(H,6,8)(H,7,9)",-0.121,NNC(=O)CC(=O)NN,0,G1,B,None,None,Uncharged
B-2037,"InChI=1S/C6H15N/c1-5(7)6(2,3)4/h5H,7H2,1-4H3/p+1/t5-/m0/s1",0.9861,CC([NH3+])C(C)(C)C,0,G1,B,None,None,Positive
B-2039,"InChI=1S/C6H14N2O6/c7-8-6(14)5(13)4(12)3(11)2(10)1-9/h2-5,9-13H,1,7H2,(H,8,14)",-0.4985,NNC(=O)C(O)C(O)C(O)C(O)CO,0,G1,B,None,None,Uncharged
B-2040,"InChI=1S/C11H8N2O/c1-2-5-9-8(4-1)12-11(13-9)10-6-3-7-14-10/h1-7H,(H,12,13)",-3.414,N1C2=CC=CC=C2N=C1C1=CC=CO1,0.038,G3,B,None,None,Uncharged
B-2041,"InChI=1S/C12H8BrNS/c13-8-5-6-10-12(7-8)15-11-4-2-1-3-9(11)14-10/h1-7,14H",-6.1119,BrC1=CC=C2NC3=CC=CC=C3SC2=C1,0,G1,B,None,None,Uncharged
B-2042,"InChI=1S/C12H8INS/c13-8-5-6-10-12(7-8)15-11-4-2-1-3-9(11)14-10/h1-7,14H",-6.9278,IC1=CC=C2NC3=CC=CC=C3SC2=C1,0,G1,B,None,None,Uncharged
B-2043,"InChI=1S/C6H12Cl2O4S2/c7-1-3-13(9,10)5-6-14(11,12)4-2-8/h1-6H2",-1.4486,ClCCS(=O)(=O)CCS(=O)(=O)CCCl,0,G1,B,None,None,Uncharged
B-2044,"InChI=1S/C19H15NO8/c21-13(22)7-20(8-14(23)24)6-9-5-12-15(19(28)16(9)25)18(27)11-4-2-1-3-10(11)17(12)26/h1-5,25,28H,6-8H2,(H,21,22)(H,23,24)",-1.8077,OC1=C([O-])C(CN(CC([O-])=O)CC([O-])=O)=CC2=C1C(=O)C1=CC=CC=C1C2=O,0,G1,B,None,None,Negative
B-2045,"InChI=1S/C8H7ClO3/c1-12-8(11)5-2-3-7(10)6(9)4-5/h2-4,10H,1H3",-2.873,COC(=O)C1=CC=C(O)C(Cl)=C1,0,G1,B,None,None,Uncharged
B-2046,"InChI=1S/C7H16O/c1-5-6(8)7(2,3)4/h6,8H,5H2,1-4H3",-1.1514,CCC(O)C(C)(C)C,0,G1,B,None,None,Uncharged
B-2047,"InChI=1S/C4H5ClO4/c5-2(4(8)9)1-3(6)7/h2H,1H2,(H,6,7)(H,8,9)/t2-/m1/s1",-0.7953,[O-]C(=O)CC(Cl)C([O-])=O,0.5,G3,B,None,None,Negative
B-2048,"InChI=1S/C9H16O4/c1-2-3-4-5-6-7(8(10)11)9(12)13/h7H,2-6H2,1H3,(H,10,11)(H,12,13)",-1.6566,CCCCCCC(C(O)=O)C([O-])=O,0,G1,B,None,None,Negative
B-2049,"InChI=1S/C8H5Cl3O3/c9-4-1-2-5(10)8(7(4)11)14-3-6(12)13/h1-2H,3H2,(H,12,13)",-2.6198,[O-]C(=O)COC1=C(Cl)C=CC(Cl)=C1Cl,0,G1,B,None,None,Negative
B-2050,"InChI=1S/C9H10O2/c1-11-7-9(10)8-5-3-2-4-6-8/h2-6H,7H2,1H3",-0.7616,COCC(=O)C1=CC=CC=C1,0,G1,B,None,None,Uncharged
B-2051,"InChI=1S/C9H16ClN4.ClH/c10-2-1-3-14-7-11-4-12(8-14)6-13(5-11)9-14;/h1-2H,3-9H2;1H/q+1;/p-1/b2-1+;",0.0829,ClC=CC[N+]12CN3CN(CN(C3)C1)C2,0,G1,B,None,None,Positive
B-2052,"InChI=1S/C4H8O/c1-2-3-4-5/h2-3,5H,4H2,1H3/b3-2-",0.3621,CC=CCO,0.38995,G3,B,None,None,Uncharged
B-2053,"InChI=1S/C2H2ClN3O6/c3-1-2(4(7)8,5(9)10)6(11)12/h1H2",-0.2586,[O-][N+](=O)C(CCl)([N+]([O-])=O)[N+]([O-])=O,0,G1,B,None,None,PureChargeSeparation
B-2054,"InChI=1S/C12H22O4/c1-5-11(6-2,9(13)14)12(7-3,8-4)10(15)16/h5-8H2,1-4H3,(H,13,14)(H,15,16)",-2.9644,CCC(CC)(C([O-])=O)C(CC)(CC)C([O-])=O,0,G1,B,None,None,Negative
B-2055,"InChI=1S/C8H16O3/c1-3-4-6-11-7-5-8(9)10-2/h3-7H2,1-2H3",-1.2909,CCCCOCCC(=O)OC,0,G1,B,None,None,Uncharged
B-2057,"InChI=1S/C11H21N5S/c1-6-17-11-15-9(12-7(2)3)14-10(16-11)13-8(4)5/h7-8H,6H2,1-5H3,(H2,12,13,14,15,16)",-4.2031,CCSC1=NC(NC(C)C)=NC(NC(C)C)=N1,0,G1,B,None,None,Uncharged
B-2059,"InChI=1S/C10H11NO4/c1-7(2)10(12)15-9-5-3-8(4-6-9)11(13)14/h3-7H,1-2H3",-3.9588,CC(C)C(=O)OC1=CC=C(C=C1)[N+]([O-])=O,0,G1,B,None,None,PureChargeSeparation
B-2060,"InChI=1S/C8H16O3/c1-3-4-6-11-8(9)5-7-10-2/h3-7H2,1-2H3",-1.2135,CCCCOC(=O)CCOC,0,G1,B,None,None,Uncharged
B-2062,InChI=1S/C12H7N3O2/c16-15(17)10-7-8-3-1-5-13-11(8)12-9(10)4-2-6-14-12/h1-7H,-3.9172,[O-][N+](=O)C1=CC2=C(N=CC=C2)C2=C1C=CC=N2,0,G1,B,None,None,PureChargeSeparation
B-2063,"InChI=1S/C6H8N2O2/c1-2-4-3-7-6(10)8-5(4)9/h3H,2H2,1H3,(H2,7,8,9,10)",-1.9424,CCC1=CNC(=O)NC1=O,0,G1,B,None,None,Uncharged
B-2064,"InChI=1S/C5H9NO4/c1-6-3(5(9)10)2-4(7)8/h3,6H,2H2,1H3,(H,7,8)(H,9,10)",-0.7544,C[NH2+]C(CC([O-])=O)C([O-])=O,0,G1,B,None,None,Zwitterion
B-2065,"InChI=1S/C16H12O5/c17-14(12-7-3-4-8-13(12)16(20)21)9-10-5-1-2-6-11(10)15(18)19/h1-8H,9H2,(H,18,19)(H,20,21)",-2.791,[O-]C(=O)C1=CC=CC=C1CC(=O)C1=CC=CC=C1C([O-])=O,0,G1,B,None,None,Negative
B-2066,"InChI=1S/C8H5NO6/c10-7(11)4-1-2-6(9(14)15)5(3-4)8(12)13/h1-3H,(H,10,11)(H,12,13)",-1.3391,[O-]C(=O)C1=CC=C(C(=C1)C([O-])=O)[N+]([O-])=O,0,G1,B,None,None,Negative
B-2067,InChI=1S/C12H9ClN2/c13-10-6-8-12(9-7-10)15-14-11-4-2-1-3-5-11/h1-9H,-5.7023,ClC1=CC=C(C=C1)N=NC1=CC=CC=C1,0,G1,B,None,None,Uncharged
B-2068,"InChI=1S/C9H9N3O5/c13-9-11(4-1-5-16-9)10-6-7-2-3-8(17-7)12(14)15/h2-3,6H,1,4-5H2/b10-6+",-3.4757,[O-][N+](=O)C1=CC=C(O1)C=NN1CCCOC1=O,0,G1,B,None,None,PureChargeSeparation
B-2069,"InChI=1S/C12H8O2/c13-12-7-10-9-4-2-1-3-8(9)5-6-11(10)14-12/h1-6H,7H2",-2.7078,O=C1CC2=C(O1)C=CC1=CC=CC=C21,0,G1,B,None,None,Uncharged
B-2070,"InChI=1S/C20H26N2O2/c1-3-10-11-8-14-17-20(12-6-4-5-7-13(12)21(17)2)9-15(16(11)18(20)23)22(14)19(10)24/h4-7,10-11,14-19,23-24H,3,8-9H2,1-2H3/t10-,11-,14-,15-,16?,17-,18?,19+,20+/m0/s1",-2.8266,CCC1C2CC3C4N(C)C5=CC=CC=C5C44CC(C2C4O)N3C1O,0,G1,B,None,None,Uncharged
B-2071,"InChI=1S/C13H24O4/c1-2-3-4-5-6-7-8-9-10-11(12(14)15)13(16)17/h11H,2-10H2,1H3,(H,14,15)(H,16,17)",-3.99,CCCCCCCCCCC(C([O-])=O)C([O-])=O,0,G1,B,None,None,Negative
B-2072,"InChI=1S/C8H10O2/c1-6-2-3-8(10)7(4-6)5-9/h2-4,9-10H,5H2,1H3",-0.3143,CC1=CC=C(O)C(CO)=C1,0,G1,B,None,None,Uncharged
B-2073,"InChI=1S/C11H15NO3/c1-4-8-7(3)10(11(14)15-5-2)12-9(8)6-13/h6,12H,4-5H2,1-3H3",-2.7186,CCOC(=O)C1=C(C)C(CC)=C(N1)C=O,0,G1,B,None,None,Uncharged
B-2074,"InChI=1S/C13H9F3N2O2/c14-13(15,16)8-3-1-4-9(7-8)18-11-10(12(19)20)5-2-6-17-11/h1-7H,(H,17,18)(H,19,20)",-4.1718,[O-]C(=O)C1=CC=CN=C1NC1=CC=CC(=C1)C(F)(F)F,0.363754875,G5,B,None,None,Negative
B-2075,"InChI=1S/C8H15NO/c1-7(10)6-8-4-2-3-5-9-8/h8-9H,2-6H2,1H3",-0.4509,CC(=O)CC1CCCC[NH2+]1,0,G1,B,None,None,Positive
B-2077,"InChI=1S/C6H12N2O2/c1-3-5(7-9)6(4-2)8-10/h7,9H,3-4H2,1-2H3/b6-5+",-2.5525,CCC(=NO)C(CC)=NO,0,G1,B,None,None,Uncharged
B-2078,"InChI=1S/C12H24N3O4P/c16-20(13-1-7-17-8-2-13,14-3-9-18-10-4-14)15-5-11-19-12-6-15/h1-12H2",0.2984,O=P(N1CCOCC1)(N1CCOCC1)N1CCOCC1,0,G1,B,None,None,Uncharged
B-2079,"InChI=1S/C12H14N4O2S/c1-8-7-14-12(15-9(8)2)16-19(17,18)11-5-3-10(13)4-6-11/h3-7H,13H2,1-2H3,(H,14,15,16)",-3.1435,CC1=CN=C(NS(=O)(=O)C2=CC=C(N)C=C2)N=C1C,0,G1,B,None,None,Uncharged
B-2080,"InChI=1S/C8H16/c1-7-4-5-8(2,3)6-7/h7H,4-6H2,1-3H3",-4.4784,CC1CCC(C)(C)C1,0,G1,B,None,None,Uncharged
B-2081,"InChI=1S/C5H8N2O2/c1-3-5(9)6-2-4(8)7-3/h3H,2H2,1H3,(H,6,9)(H,7,8)",0.2903,CC1NC(=O)CNC1=O,0,G1,B,None,None,Uncharged
B-2082,"InChI=1S/C3H6N2O/c1-3-5(2)4-6/h3H,1H2,2H3",-0.4579,CN(C=C)N=O,0.46045,G3,B,None,None,Uncharged
B-2083,"InChI=1S/C4H4N2O/c7-4-1-2-5-3-6-4/h1-3H,(H,5,6,7)",0.586,O=C1NC=NC=C1,0,G1,B,None,None,Uncharged
B-2084,"InChI=1S/C7H5BrO2/c8-5-3-1-2-4-6(9)7(5)10/h1-4H,(H,9,10)",-2.4352,[O-]C1=C(Br)C=CC=CC1=O,0,G1,B,None,None,Negative
B-2085,"InChI=1S/C5H8O2/c1-4(6)5(2)3-7-5/h3H2,1-2H3",0.3797,CC(=O)C1(C)CO1,0,G1,B,None,None,Uncharged
B-2086,"InChI=1S/C5H9NO2S2/c1-2-10-5(9)6-3-4(7)8/h2-3H2,1H3,(H,6,9)(H,7,8)",-1.0882,CCSC(=S)NCC([O-])=O,0,G1,B,None,None,Negative
B-2087,"InChI=1S/C12H22O11/c13-1-4-6(16)7(17)8(18)11(21-4)22-9-5(2-14)23-12(20,3-15)10(9)19/h4-11,13-20H,1-3H2/t4-,5-,6+,7+,8-,9-,10+,11+,12-/m1/s1",0.3487,OCC1OC(O)(CO)C(O)C1OC1OC(CO)C(O)C(O)C1O,0,G1,B,None,None,Uncharged
B-2088,"InChI=1S/C6H13NO2/c1-4-7(5-2)6(8)9-3/h4-5H2,1-3H3",-0.2918,CCN(CC)C(=O)OC,0,G1,B,None,None,Uncharged
B-2089,"InChI=1S/C14H12O3/c15-13(8-9-14(16)17)12-7-3-5-10-4-1-2-6-11(10)12/h1-7H,8-9H2,(H,16,17)",-3.4833,[O-]C(=O)CCC(=O)C1=CC=CC2=CC=CC=C12,0,G1,B,None,None,Negative
B-2091,"InChI=1S/C10H16O/c1-9(2)7-4-5-10(3,6-7)8(9)11/h7H,4-6H2,1-3H3/t7-,10+/m1/s1",-1.8507,CC1(C)C2CCC(C)(C2)C1=O,0,G1,B,None,None,Uncharged
B-2092,"InChI=1S/C6H9N2OP/c7-10(8,9)6-4-2-1-3-5-6/h1-5H,(H4,7,8,9)",-1.1482,NP(N)(=O)C1=CC=CC=C1,0,G1,B,None,None,Uncharged
B-2093,"InChI=1S/C9H14N2/c10-7-4-8-11-9-5-2-1-3-6-9/h1-3,5-6,11H,4,7-8,10H2",-1.6543,[NH3+]CCCNC1=CC=CC=C1,0,G1,B,None,None,Positive
B-2094,"InChI=1S/C13H19N3O6S/c1-4-6-14(7-5-2)13-11(15(17)18)8-10(23(3,21)22)9-12(13)16(19)20/h8-9H,4-7H2,1-3H3",-5.7601,CCCN(CCC)C1=C(C=C(C=C1[N+]([O-])=O)S(C)(=O)=O)[N+]([O-])=O,0,G1,B,None,None,PureChargeSeparation
B-2095,"InChI=1S/C14H11NO3/c16-13(15-10-6-2-1-3-7-10)11-8-4-5-9-12(11)14(17)18/h1-9H,(H,15,16)(H,17,18)",-4.0814,[O-]C(=O)C1=CC=CC=C1C(=O)NC1=CC=CC=C1,0,G1,B,None,None,Negative
B-2096,"InChI=1S/C25H25N2.HI/c1-3-26-18-16-20(22-12-5-7-14-24(22)26)10-9-11-21-17-19-27(4-2)25-15-8-6-13-23(21)25;/h5-19H,3-4H2,1-2H3;1H/q+1;/p-1",-2.6816,[I-].CCN1C=CC(=CC=CC2=CC=[N+](CC)C3=CC=CC=C23)C2=CC=CC=C12,0,G1,B,None,None,Zwitterion
B-2098,"InChI=1S/C7H4ClNO4/c8-5-3-1-2-4(7(10)11)6(5)9(12)13/h1-3H,(H,10,11)/p-1",-2.6323,[O-]C(=O)C1=CC=CC(Cl)=C1[N+]([O-])=O,0,G1,B,None,None,Negative
B-2099,"InChI=1S/C5H11NO3/c1-2-9-3-4(6)5(7)8/h4H,2-3,6H2,1H3,(H,7,8)/t4-/m0/s1",0.524,CCOCC([NH3+])C([O-])=O,0,G1,B,None,None,Zwitterion
B-2100,"InChI=1S/C6H10O4S2/c7-5(8)1-3-11-12-4-2-6(9)10/h1-4H2,(H,7,8)(H,9,10)",-0.9301,[O-]C(=O)CCSSCCC([O-])=O,0.36785,G3,B,None,None,Negative
B-2101,"InChI=1S/C4H5N/c1-2-3-4-5/h2-3H,1H3/b3-2+",-0.4287,CC=CC#N,0,G1,B,None,None,Uncharged
B-2102,"InChI=1S/C6H12O/c1-3-5-6(7)4-2/h4,6-7H,2-3,5H2,1H3",-0.5993,CCCC(O)C=C,0,G1,B,None,None,Uncharged
B-2103,"InChI=1S/C6H12O/c1-4-6(7)5(2)3/h4-7H,1H2,2-3H3",-0.515,CC(C)C(O)C=C,0.0075,G3,B,None,None,Uncharged
B-2104,"InChI=1S/C6H12O/c1-3-5-6(7)4-2/h3,5-7H,4H2,1-2H3/b5-3+",-0.4198,CCC(O)C=CC,0.0099,G3,B,None,None,Uncharged
B-2105,"InChI=1S/C15H12O3/c16-14(15(17)18)13(11-7-3-1-4-8-11)12-9-5-2-6-10-12/h1-10,13H,(H,17,18)",-2.3354,OC(C([O-])=O)=C(C1=CC=CC=C1)C1=CC=CC=C1,0,G1,B,None,None,Negative
B-2106,"InChI=1S/C14H21N3O3/c1-14(2,3)16-13(19)20-11-8-6-7-10(9-11)15-12(18)17(4)5/h6-9H,1-5H3,(H,15,18)(H,16,19)",-2.9342,CN(C)C(=O)NC1=CC=CC(OC(=O)NC(C)(C)C)=C1,0,G1,B,None,None,Uncharged