ID,InChI,Solubility,SMILEScurated,SD,Group,Dataset,Composition,Error,Charge
A-969,"InChI=1S/C10H12/c1-2-6-10-8-4-3-7-9(10)5-1/h1-2,5-6H,3-4,7-8H2",-3.567368139,C1CCC2=CC=CC=C2C1,0.352069764,G5,A,mono-constituent,None,Uncharged
A-971,"InChI=1S/C14H26O4/c1-3-5-11-17-13(15)9-7-8-10-14(16)18-12-6-4-2/h3-12H2,1-2H3",-3.86815387,CCCCOC(=O)CCCCC(=O)OCCCC,0,G1,A,mono-constituent,None,Uncharged
A-972,"InChI=1S/C18H21O3P/c1-5-21-22(20,16-9-7-6-8-10-16)18(19)17-14(3)11-13(2)12-15(17)4/h6-12H,5H2,1-4H3",-3.956081947,CCOP(=O)(C(=O)C1=C(C)C=C(C)C=C1C)C1=CC=CC=C1,0,G1,A,mono-constituent,Non Valid pH,Uncharged
A-973,"InChI=1S/C11H16O/c1-8-5-6-9(10(12)7-8)11(2,3)4/h5-7,12H,1-4H3",-2.672674663,CC1=CC=C(C(O)=C1)C(C)(C)C,0,G1,A,mono-constituent,None,Uncharged
A-974,"InChI=1S/C10H9NO6/c1-16-9(12)6-3-4-7(10(13)17-2)8(5-6)11(14)15/h3-5H,1-2H3",-2.835904882,COC(=O)C1=CC=C(C(=O)OC)C(=C1)[N+]([O-])=O,0,G1,A,mono-constituent,Non Valid pH,PureChargeSeparation
A-975,"InChI=1S/2C2H4O2.Co/c2*1-2(3)4;/h2*1H3,(H,3,4);/q;;+2/p-2",0.29360437,CC([O-])=O,0.00733667,G3,A,mono-constituent,None,Negative
A-976,"InChI=1S/C12H18O4/c1-3-11(13)15-9-7-5-6-8-10-16-12(14)4-2/h3-4H,1-2,5-10H2",-2.819336696,C=CC(=O)OCCCCCCOC(=O)C=C,0.01050419,G3,A,mono-constituent,None,Uncharged
A-978,"InChI=1S/C12H25NO/c1-4-5-6-7-8-9-10-11-12(14)13(2)3/h4-11H2,1-3H3",-2.76811118,CCCCCCCCCC(=O)N(C)C,0,G1,A,mono-constituent,None,Uncharged
A-982,"InChI=1S/C12H11N3/c13-10-6-8-12(9-7-10)15-14-11-4-2-1-3-5-11/h1-9H,13H2",-3.759703076,NC1=CC=C(C=C1)N=NC1=CC=CC=C1,0.280166719,G5,A,mono-constituent,None,Uncharged
A-986,"InChI=1S/C10H15N/c1-8-4-5-9(6-7-11)10(8,2)3/h4,9H,5-6H2,1-3H3",-2.647537233,CC1=CCC(CC#N)C1(C)C,0,G1,A,multi-constituent,None,Uncharged
A-988,"InChI=1S/C11H16O/c1-8-5-6-10(12)9(7-8)11(2,3)4/h5-7,12H,1-4H3",-2.691753623,CC1=CC=C(O)C(=C1)C(C)(C)C,0,G1,A,mono-constituent,None,Uncharged
A-989,"InChI=1S/C9H14N.ClH/c1-10(2,3)9-7-5-4-6-8-9;/h4-8H,1-3H3;1H/q+1;/p-1",0.287747296,C[N+](C)(C)C1=CC=CC=C1,0,G1,A,mono-constituent,None,Positive
A-990,"InChI=1S/C12H20O2.C10H18O/c1-9-5-7-11(8-6-9)12(3,4)14-10(2)13;1-9(2)8-4-6-10(3,11-9)7-5-8/h5,11H,6-8H2,1-4H3;8H,4-7H2,1-3H3",-3.021359064,CC(=O)OC(C)(C)C1CCC(C)=CC1,0,G1,A,None,Cosolvent Buffer,Uncharged
A-991,"InChI=1S/C12H15N3O3/c1-4-7-16-10-13-11(17-8-5-2)15-12(14-10)18-9-6-3/h4-6H,1-3,7-9H2",-2.87422578,C=CCOC1=NC(OCC=C)=NC(OCC=C)=N1,0.526719677,G4,A,mono-constituent,None,Uncharged
A-993,"InChI=1S/C5H10O2/c1-2-3-4-5(6)7/h2-4H2,1H3,(H,6,7)",-0.490652149,CCCCC([O-])=O,0.088349088,G5,A,mono-constituent,Non Valid pH,Negative
A-994,"InChI=1S/C11H16O/c1-9(10(2)12)8-11-6-4-3-5-7-11/h3-7,9-10,12H,8H2,1-2H3",-1.69697299,CC(O)C(C)CC1=CC=CC=C1,0,G1,A,multi-constituent,None,Uncharged
A-995,"InChI=1S/C11H20O4/c1-4-7-8-9(10(12)14-5-2)11(13)15-6-3/h9H,4-8H2,1-3H3",-2.816496397,CCCCC(C(=O)OCC)C(=O)OCC,0,G1,A,mono-constituent,None,Uncharged
A-996,"InChI=1S/C16H32N2O/c1-2-3-4-5-6-7-8-9-10-11-16-17-12-13-18(16)14-15-19/h19H,2-15H2,1H3",-3.898655621,CCCCCCCCCCCC1=[NH+]CCN1CCO,0,G1,A,mono-constituent,None,Positive
A-997,"InChI=1S/C7H4ClF3/c8-6-3-1-5(2-4-6)7(9,10)11/h1-4H",-3.727695225,FC(F)(F)C1=CC=C(Cl)C=C1,0,G1,A,mono-constituent,None,Uncharged
A-998,"InChI=1S/C12H10O2/c13-11-5-1-9(2-6-11)10-3-7-12(14)8-4-10/h1-8,13-14H",-3.742373099,OC1=CC=C(C=C1)C1=CC=C(O)C=C1,0,G1,A,mono-constituent,None,Uncharged
A-999,"InChI=1S/C12H20O2/c1-3-9-13-11-5-7-12(8-6-11)14-10-4-2/h3-4,9-12H,5-8H2,1-2H3/b9-3+,10-4+",-3.903732091,CC=COC1CCC(CC1)OC=CC,0.023371702,G3,A,None,None,Uncharged
A-1000,InChI=1S/C15H28O3/c16-15-11-7-4-2-1-3-5-8-12-17-13-9-6-10-14-18-15/h1-14H2,-3.8838495,O=C1CCCCCCCCCOCCCCCO1,0,G1,A,mono-constituent,None,Uncharged
A-1002,"InChI=1S/C20H42/c1-4-6-8-10-12-13-15-17-19-20(3)18-16-14-11-9-7-5-2/h20H,4-19H2,1-3H3",-6.451104534,CCCCCCCCCCC(C)CCCCCCCC,0,G1,A,None,None,Uncharged
A-1003,"InChI=1S/C2H4N4O2/c3-1(7)5-6-2(4)8/h(H2,3,7)(H2,4,8)",-3.54624346,NC(=O)N=NC(N)=O,0,G1,A,mono-constituent,None,Uncharged
A-1004,"InChI=1S/C14H22O/c1-13(2,3)10-7-8-12(15)11(9-10)14(4,5)6/h7-9,15H,1-6H3",-3.796046333,CC(C)(C)C1=CC=C(O)C(=C1)C(C)(C)C,0.012773167,G3,A,mono-constituent,None,Uncharged
A-1005,"InChI=1S/C14H20O/c1-11(10-15)9-12-5-7-13(8-6-12)14(2,3)4/h5-8,10-11H,9H2,1-4H3",-3.791782061,CC(CC1=CC=C(C=C1)C(C)(C)C)C=O,0.067349287,G3,A,mono-constituent,None,Uncharged
A-1006,"InChI=1S/C14H14N2O2/c1-18-13-8-7-10(9-12(13)15)14(17)16-11-5-3-2-4-6-11/h2-9H,15H2,1H3,(H,16,17)",-3.86580004,COC1=CC=C(C=C1N)C(=O)NC1=CC=CC=C1,0,G1,A,mono-constituent,None,Uncharged
A-1007,InChI=1S/CO/c1-2,-2.928799169,C#[O+],0,G1,A,mono-constituent,None,Positive
A-1009,"InChI=1S/C5H11Cl/c1-4-5(2,3)6/h4H2,1-3H3",-2.51054501,CCC(C)(C)Cl,0.500659021,G2,A,mono-constituent,None,Uncharged
A-1011,InChI=1S/C10H12N6/c11-1-5-15(6-2-12)9-10-16(7-3-13)8-4-14/h5-10H2,-2.820404347,N#CCN(CCN(CC#N)CC#N)CC#N,0.015837084,G3,A,mono-constituent,None,Uncharged
A-1013,"InChI=1S/C11H14O3/c1-11(2,3)14-13-10(12)9-7-5-4-6-8-9/h4-8H,1-3H3",-2.776432949,CC(C)(C)OOC(=O)C1=CC=CC=C1,0,G1,A,mono-constituent,None,Uncharged
A-1014,"InChI=1S/C2H4F2/c1-2(3)4/h2H,1H3",-1.314722844,CC(F)F,0.028995974,G3,A,mono-constituent,None,Uncharged
A-1015,"InChI=1S/C10H22O/c1-5-10(4,11)8-6-7-9(2)3/h9,11H,5-8H2,1-4H3",-2.694289782,CCC(C)(O)CCCC(C)C,0.051152522,G3,A,mono-constituent,None,Uncharged
A-1016,"InChI=1S/C8H8N2OS/c1-11-5-2-3-6-7(4-5)10-8(12)9-6/h2-4H,1H3,(H2,9,10,12)",-2.750681924,COC1=CC=C2NC(=S)NC2=C1,0,G1,A,mono-constituent,None,Uncharged
A-1018,"InChI=1S/CBrF3/c2-1(3,4)5",-2.667770969,FC(F)(F)Br,0,G1,A,mono-constituent,None,Uncharged
A-1020,"InChI=1S/2C16H35O2PS2.Zn/c2*1-15(2)11-7-5-9-13-17-19(20,21)18-14-10-6-8-12-16(3)4;/h2*15-16H,5-14H2,1-4H3,(H,20,21);/q;;+2/p-2",-4.370701466,CC(C)CCCCCOP([S-])(=S)OCCCCCC(C)C,0,G1,A,UVCB,None,Negative
A-1021,"InChI=1S/C16H16O4/c1-2-11-6-12(17-7-13-8-18-13)4-5-15(11)16(3-1)20-10-14-9-19-14/h1-6,13-14H,7-10H2",-3.919173798,C(OC1=CC2=CC=CC(OCC3CO3)=C2C=C1)C1CO1,0,G1,A,mono-constituent,None,Uncharged
A-1022,"InChI=1S/C11H18O2/c1-10(2)5-4-6-11(3)7-8-13-9-12/h5,7,9H,4,6,8H2,1-3H3/b11-7+",-3.746150762,CC(C)=CCCC(C)=CCOC=O,0,G1,A,mono-constituent,None,Uncharged
A-1023,"InChI=1S/H2O4S.4H2O.5Pb/c1-5(2,3)4;;;;;;;;;/h(H2,1,2,3,4);4*1H2;;;;;/p-2",-4.566123099,[Pb],0,G1,A,None,Cosolvent Buffer,Uncharged
A-1024,"InChI=1S/C14H22O/c1-10-6-7-11(2)14(4,5)13(10)9-8-12(3)15/h6,8-9,11,13H,7H2,1-5H3/b9-8+/t11-,13+/m1/s1",-3.802676912,CC1CC=C(C)C(C=CC(C)=O)C1(C)C,0,G1,A,multi-constituent,None,Uncharged
A-1025,"InChI=1S/C9H20O2Si/c1-10-12(11-2)8-9-6-4-3-5-7-9/h9,12H,3-8H2,1-2H3",-3.095972537,CO[SiH](CC1CCCCC1)OC,0,G1,A,None,None,Uncharged
A-1027,"InChI=1S/C14H14N2O6S2/c15-11-5-3-9(13(7-11)23(17,18)19)1-2-10-4-6-12(16)8-14(10)24(20,21)22/h1-8H,15-16H2,(H,17,18,19)(H,20,21,22)/b2-1+",-4.06353038,NC1=CC=C(C=CC2=CC=C(N)C=C2S([O-])(=O)=O)C(=C1)S([O-])(=O)=O,0.634592497,G4,A,mono-constituent,None,Negative
A-1028,"InChI=1S/2C8H8N2S.Zn/c2*1-5-3-2-4-6-7(5)10-8(11)9-6;/h2*2-4H,1H3,(H2,9,10,11);/q;;+2/p-2",-4.08795879,CC1=CC=CC2=C1NC(=S)N2,0,G1,A,multi-constituent,None,Uncharged
A-1029,"InChI=1S/C9H11O4P/c10-9(11)6-7-14(12,13)8-4-2-1-3-5-8/h1-5H,6-7H2,(H,10,11)(H,12,13)",-0.828305155,[O-]C(=O)CCP([O-])(=O)C1=CC=CC=C1,1.065896718,G4,A,None,None,Negative
A-1030,"InChI=1S/C14H14OS/c15-16(11-13-7-3-1-4-8-13)12-14-9-5-2-6-10-14/h1-10H,11-12H2",-2.858808721,O=S(CC1=CC=CC=C1)CC1=CC=CC=C1,0,G1,A,mono-constituent,None,Uncharged
A-1032,"InChI=1S/C8H12N4/c1-7(2,5-9)11-12-8(3,4)6-10/h1-4H3",-2.713250998,CC(C)(N=NC(C)(C)C#N)C#N,0.020957076,G3,A,mono-constituent,None,Uncharged
A-1033,"InChI=1S/C8H14O2/c1-4-7(3)6-10-8(9)5-2/h5,7H,2,4,6H2,1,3H3",-2.653206406,CCC(C)COC(=O)C=C,0,G1,A,mono-constituent,None,Uncharged
A-1034,InChI=1S/C7H4ClNS/c8-7-9-5-3-1-2-4-6(5)10-7/h1-4H,-2.732588375,ClC1=NC2=CC=CC=C2S1,0,G1,A,mono-constituent,None,Uncharged
A-1035,"InChI=1S/C12H17NO2.C2H7NO/c1-9-7-11(13(15)12(14)8-9)10-5-3-2-4-6-10;3-1-2-4/h7-8,10,15H,2-6H2,1H3;4H,1-3H2",-0.933168591,CC1=CC(=O)N([O-])C(=C1)C1CCCCC1,0,G1,A,mono-constituent,Cosolvent Buffer,Negative
A-1038,InChI=1S/C9H5Cl2N/c10-6-1-2-7-8(11)3-4-12-9(7)5-6/h1-5H,-2.802624638,ClC1=CC2=NC=CC(Cl)=C2C=C1,0,G1,A,mono-constituent,None,Uncharged
A-1041,"InChI=1S/C6H7NO3S/c7-5-3-1-2-4-6(5)11(8,9)10/h1-4H,7H2,(H,8,9,10)",-1.747168641,NC1=CC=CC=C1S([O-])(=O)=O,0,G1,A,mono-constituent,None,Negative
A-1042,"InChI=1S/2C5H7O2.2C3H7O.Ti/c2*1-4(6)3-5(2)7;2*1-3(2)4;/h2*3H,1-2H3;2*3H,1-2H3;/q4*-1;+4",-2.070050982,CC(O)=CC(C)=O,0,G1,A,None,Cosolvent Buffer,Uncharged
A-1043,"InChI=1S/C8H8ClNO3S/c1-6(11)10-7-2-4-8(5-3-7)14(9,12)13/h2-5H,1H3,(H,10,11)",-2.877252416,CC(=O)NC1=CC=C(C=C1)S(Cl)(=O)=O,0.544210951,G2,A,mono-constituent,None,Uncharged
A-1050,"InChI=1S/C12H22O2/c1-5-10(13)14-11-9(2)7-6-8-12(11,3)4/h9,11H,5-8H2,1-4H3",-3.803181261,CCC(=O)OC1C(C)CCCC1(C)C,0,G1,A,None,None,Uncharged
A-1051,"InChI=1S/C10H10O4/c1-13-9(11)7-3-5-8(6-4-7)10(12)14-2/h3-6H,1-2H3",-3.796856222,COC(=O)C1=CC=C(C=C1)C(=O)OC,0.182252105,G5,A,mono-constituent,None,Uncharged
A-1052,"InChI=1S/C12H22O/c1-2-3-4-5-6-8-11-9-7-10-12(11)13/h11H,2-10H2,1H3",-3.769441651,CCCCCCCC1CCCC1=O,0,G1,A,mono-constituent,None,Uncharged
A-1053,"InChI=1S/C15H14O2/c16-15(11-13-7-3-1-4-8-13)17-12-14-9-5-2-6-10-14/h1-10H,11-12H2",-3.86327488,O=C(CC1=CC=CC=C1)OCC1=CC=CC=C1,0,G1,A,mono-constituent,None,Uncharged
A-1056,InChI=1S/C6H12N2S3/c1-7(2)5(9)11-6(10)8(3)4/h1-4H3,-2.830299065,CN(C)C(=S)SC(=S)N(C)C,0,G1,A,mono-constituent,None,Uncharged
A-1058,"InChI=1S/C10H20O/c1-9(2)5-4-6-10(3)7-8-11/h5,10-11H,4,6-8H2,1-3H3/t10-/m1/s1",-2.706734458,CC(CCO)CCC=C(C)C,0.00500856,G3,A,mono-constituent,None,Uncharged
A-1059,"InChI=1S/C10H18O/c1-5-10(11)9(4)7-6-8(2)3/h6,9H,5,7H2,1-4H3",-2.701095244,CCC(=O)C(C)CC=C(C)C,0,G1,A,mono-constituent,None,Uncharged
A-1060,"InChI=1S/C8H11NO3S/c1-5-3-6(2)8(9)7(4-5)13(10,11)12/h3-4H,9H2,1-2H3,(H,10,11,12)",-1.819543504,CC1=CC(C)=C(N)C(=C1)S([O-])(=O)=O,0,G1,A,mono-constituent,None,Negative
A-1062,InChI=1S/C4H4S/c1-2-4-5-3-1/h1-4H,-1.445011049,S1C=CC=C1,0.057505525,G3,A,mono-constituent,None,Uncharged
A-1065,"InChI=1S/C15H16O2/c1-15(2,11-3-7-13(16)8-4-11)12-5-9-14(17)10-6-12/h3-10,16-17H,1-2H3",-2.879922295,CC(C)(C1=CC=C(O)C=C1)C1=CC=C(O)C=C1,0.186254225,G5,A,mono-constituent,None,Uncharged
A-1066,"InChI=1S/C2HCl3O/c3-2(4,5)1-6/h1H",-0.691340871,ClC(Cl)(Cl)C=O,1.220978419,G2,A,mono-constituent,None,Uncharged
A-1067,"InChI=1S/C5H12O/c1-3-5(2)4-6/h5-6H,3-4H2,1-2H3",-0.468101062,CCC(C)CO,0,G1,A,mono-constituent,None,Uncharged
A-1068,"InChI=1S/C5H12O/c1-5(2)3-4-6/h5-6H,3-4H2,1-2H3",-0.468101062,CC(C)CCO,0.226090118,G5,A,mono-constituent,None,Uncharged
A-1069,"InChI=1S/C28H21N5O14S4.4Na/c1-14(34)29-23-10-11-24(50(42,43)44)20-13-25(51(45,46)47)27(28(35)26(20)23)33-32-22-9-8-21(18-7-6-17(12-19(18)22)49(39,40)41)31-30-15-2-4-16(5-3-15)48(36,37)38;;;;/h2-13,32H,1H3,(H,29,34)(H,36,37,38)(H,39,40,41)(H,42,43,44)(H,45,46,47);;;;/q;4*+1/p-4/b31-30?,33-27-;;;;",-1.461244839,CC(=O)NC1=CC=C(C2=C1C(=O)C(=NNC1=CC=C(N=NC3=CC=C(C=C3)S([O-])(=O)=O)C3=CC=C(C=C13)S([O-])(=O)=O)C(=C2)S([O-])(=O)=O)S([O-])(=O)=O,0,G1,A,mono-constituent,None,Negative
A-1070,InChI=1S/C7H5NS/c1-2-4-7-6(3-1)8-5-9-7/h1-5H,-1.653826526,S1C=NC2=CC=CC=C12,0.0781736,G3,A,mono-constituent,None,Uncharged
A-1073,"InChI=1S/C7H5NO4/c9-7(10)5-2-1-3-6(4-5)8(11)12/h1-4H,(H,9,10)",-1.745907172,[O-]C(=O)C1=CC=CC(=C1)[N+]([O-])=O,0.052366028,G5,A,mono-constituent,None,Negative
A-1074,InChI=1S/Mo.2O,-3.739643636,O=[Mo]=O,0,G1,A,mono-constituent,None,Uncharged
A-1076,"InChI=1S/C8H5NO3/c10-7-5-3-1-2-4-6(5)9-8(11)12-7/h1-4H,(H,9,11)",-2.735417906,O=C1NC2=CC=CC=C2C(=O)O1,0,G1,A,mono-constituent,Unstable,Uncharged
A-1077,"InChI=1S/C14H12O2/c15-13(11-7-3-1-4-8-11)14(16)12-9-5-2-6-10-12/h1-10,13,15H",-2.849722352,OC(C(=O)C1=CC=CC=C1)C1=CC=CC=C1,0.485138824,G3,A,mono-constituent,Non Valid pH,Uncharged
A-1080,"InChI=1S/C8H18O/c1-2-3-4-5-6-7-8-9/h9H,2-8H2,1H3",-2.637593121,CCCCCCCCO,0.261376444,G5,A,mono-constituent,None,Uncharged
A-1082,InChI=1S/O2Te/c1-3-2,-3.715606233,O=[Te]=O,1.57395916,G4,A,mono-constituent,None,Uncharged
A-1085,"InChI=1S/C8H7Cl2FN2O3/c1-15-3(14)2-16-8-5(10)6(12)4(9)7(11)13-8/h2H2,1H3,(H2,12,13)",-3.951281028,COC(=O)COC1=NC(F)=C(Cl)C(N)=C1Cl,0.015704232,G3,A,mono-constituent,None,Uncharged
A-1088,"InChI=1S/C12H20O2/c1-6-12(5,14-11(4)13)9-7-8-10(2)3/h6,8H,1,7,9H2,2-5H3",-3.81577692,CC(C)=CCCC(C)(OC(C)=O)C=C,0,G1,A,mono-constituent,None,Uncharged
A-1091,"InChI=1S/C14H22O/c1-13(2,3)10-8-7-9-11(12(10)15)14(4,5)6/h7-9,15H,1-6H3",-4.713587378,CC(C)(C)C1=CC=CC(=C1O)C(C)(C)C,0.103333369,G5,A,mono-constituent,None,Uncharged
A-1092,"InChI=1S/C28H34O15/c1-10-21(33)23(35)25(37)27(39-10)43-26-24(36)22(34)19(9-29)42-28(26)40-12-6-14(31)20-15(32)8-17(41-18(20)7-12)11-3-4-16(38-2)13(30)5-11/h3-7,10,17,19,21-31,33-37H,8-9H2,1-2H3/t10-,17-,19+,21-,22+,23+,24-,25+,26+,27-,28+/m0/s1",-5.185848833,COC1=CC=C(C=C1O)C1CC(=O)C2=C(O)C=C(OC3OC(CO)C(O)C(O)C3OC3OC(C)C(O)C(O)C3O)C=C2O1,0,G1,A,mono-constituent,None,Uncharged
A-1093,"InChI=1S/3CH2O3.2Ce/c3*2-1(3)4;;/h3*(H2,2,3,4);;/q;;;2*+3/p-6",-5.066402363,[Ce+3],0,G1,A,mono-constituent,None,Uncharged
A-1094,"InChI=1S/C10H20O2/c1-4-6-7-10(5-2)8-12-9(3)11/h10H,4-8H2,1-3H3",-4.645140005,CCCCC(CC)COC(C)=O,0,G1,A,mono-constituent,None,Uncharged
A-1095,"InChI=1S/C11H21N/c1-3-4-5-6-7-8-9-11(2)10-12/h11H,3-9H2,1-2H3",-4.63242095,CCCCCCCCC(C)C#N,0,G1,A,mono-constituent,None,Uncharged
A-1096,"InChI=1S/C15H12ClN5O4/c1-3-20-14(22)10(7-17)8(2)13(15(20)23)19-18-11-5-4-9(16)6-12(11)21(24)25/h4-6,18H,3H2,1-2H3/b19-13+",-4.96733793,CCN1C(=O)C(=N[N-]C2=CC=C(Cl)C=C2[N+]([O-])=O)C(C)=C(C#N)C1=O,0.861331035,G2,A,mono-constituent,None,Negative
A-1097,"InChI=1S/C8H16/c1-4-5-6-7-8(2)3/h4,8H,1,5-7H2,2-3H3",-4.458990177,CC(C)CCCC=C,0.521201924,G2,A,UVCB,Non Valid pH,Uncharged
A-1098,"InChI=1S/C10H9Cl2NO/c11-2-1-6-3-7-4-10(14)13-9(7)5-8(6)12/h3,5H,1-2,4H2,(H,13,14)",-4.77757407,ClCCC1=CC2=C(NC(=O)C2)C=C1Cl,0,G1,A,mono-constituent,None,Uncharged
A-1099,"InChI=1S/C18H34O6/c1-3-5-11-21-13-15-23-17(19)9-7-8-10-18(20)24-16-14-22-12-6-4-2/h3-16H2,1-2H3",-4.958733139,CCCCOCCOC(=O)CCCCC(=O)OCCOCCCC,0.711698199,G2,A,mono-constituent,None,Uncharged
A-1100,"InChI=1S/C14H14/c1-12(13-8-4-2-5-9-13)14-10-6-3-7-11-14/h2-12H,1H3",-4.692503939,CC(C1=CC=CC=C1)C1=CC=CC=C1,0.154027347,G5,A,mono-constituent,None,Uncharged
A-1101,"InChI=1S/C14H14/c1-12-7-5-6-10-14(12)11-13-8-3-2-4-9-13/h2-10H,11H2,1H3",-4.692503939,CC1=CC=CC=C1CC1=CC=CC=C1,0,G1,A,mono-constituent,None,Uncharged
A-1104,"InChI=1S/3CH2O3.2Nd/c3*2-1(3)4;;/h3*(H2,2,3,4);;/q;;;2*+3/p-6",-5.108420439,[Nd+3],0,G1,A,mono-constituent,None,Uncharged
A-1105,"InChI=1S/C22H30O4/c1-13(23)22(26-14(2)24)11-9-20-19-6-4-15-12-16(25)5-7-17(15)18(19)8-10-21(20,22)3/h12,17-20H,4-11H2,1-3H3/t17-,18+,19+,20-,21-,22-/m0/s1",-4.995753937,CC(=O)OC1(CCC2C3CCC4=CC(=O)CCC4C3CCC12C)C(C)=O,0,G1,A,mono-constituent,Non Valid pH,Uncharged
A-1106,"InChI=1S/C20H16N2O4/c23-19(24)15-12-18(22-14-9-5-2-6-10-14)16(20(25)26)11-17(15)21-13-7-3-1-4-8-13/h1-12,21-22H,(H,23,24)(H,25,26)",-4.985723288,[O-]C(=O)C1=CC(NC2=CC=CC=C2)=C(C=C1NC1=CC=CC=C1)C([O-])=O,0,G1,A,mono-constituent,None,Negative
A-1107,"InChI=1S/C16H14O2/c17-16(12-11-14-7-3-1-4-8-14)18-13-15-9-5-2-6-10-15/h1-12H,13H2/b12-11+",-4.820796026,O=C(OCC1=CC=CC=C1)C=CC1=CC=CC=C1,0,G1,A,mono-constituent,None,Uncharged
A-1110,"InChI=1S/C15H11N3O/c19-15-17-13(11-7-3-1-4-8-11)16-14(18-15)12-9-5-2-6-10-12/h1-10H,(H,16,17,18,19)",-5.493585254,O=C1NC(=NC(=N1)C1=CC=CC=C1)C1=CC=CC=C1,0,G1,A,mono-constituent,None,Uncharged
A-1111,InChI=1S/2Gd.3O/q2*+3;3*-2,-5.015236372,[Gd+3],1.696449594,G4,A,None,None,Uncharged
A-1112,"InChI=1S/C14H24O2/c1-7-14(6,10-8-9-11(2)3)16-13(15)12(4)5/h7,9,12H,1,8,10H2,2-6H3",-4.810584984,CC(C)C(=O)OC(C)(CCC=C(C)C)C=C,0,G1,A,mono-constituent,Unstable,Uncharged
A-1113,"InChI=1S/C22H21O2P/c1-16-14-17(2)21(18(3)15-16)22(23)25(24,19-10-6-4-7-11-19)20-12-8-5-9-13-20/h4-15H,1-3H3",-5.010576791,CC1=CC(C)=C(C(=O)P(=O)(C2=CC=CC=C2)C2=CC=CC=C2)C(C)=C1,0.254956884,G3,A,mono-constituent,None,Uncharged
A-1114,"InChI=1S/C21H40O4/c1-7-11-13-17(9-3)19(22)24-15-21(5,6)16-25-20(23)18(10-4)14-12-8-2/h17-18H,7-16H2,1-6H3",-5.02063787,CCCCC(CC)C(=O)OCC(C)(C)COC(=O)C(CC)CCCC,1.265739459,G2,A,mono-constituent,None,Uncharged
A-1115,InChI=1S/5O.Pb.Ti.Zr/q5*-2;+2;2*+4,-5.098222153,O.O.O.O.O.[Ti+4].[Zr+4].[Pb++],0,G1,A,mono-constituent,Multi-constituent Substances,Uncharged
A-1116,"InChI=1S/C12H20O2/c1-6-14-11(13)10-9(7-8(2)3)12(10,4)5/h7,9-10H,6H2,1-5H3",-4.765268274,CCOC(=O)C1C(C=C(C)C)C1(C)C,0,G1,A,mono-constituent,None,Uncharged
A-1119,"InChI=1S/C14H11N3O4/c15-13(18)9-1-5-11(6-2-9)16-14(19)10-3-7-12(8-4-10)17(20)21/h1-8H,(H2,15,18)(H,16,19)",-4.936725416,NC(=O)C1=CC=C(NC(=O)C2=CC=C(C=C2)[N+]([O-])=O)C=C1,0,G1,A,mono-constituent,None,PureChargeSeparation
A-1120,"InChI=1S/C17H24O/c1-11(18)14-9-12(16(2,3)4)10-15-13(14)7-8-17(15,5)6/h9-10H,7-8H2,1-6H3",-4.870866208,CC(=O)C1=CC(=CC2=C1CCC2(C)C)C(C)(C)C,0,G1,A,mono-constituent,None,Uncharged
A-1121,"InChI=1S/C22H18N2O5S/c1-12-7-9-13(10-8-12)30(27,28)24-16-11-17(29-2)20(23)19-18(16)21(25)14-5-3-4-6-15(14)22(19)26/h3-11,24H,23H2,1-2H3",-5.112570051,COC1=CC(NS(=O)(=O)C2=CC=C(C)C=C2)=C2C(=O)C3=CC=CC=C3C(=O)C2=C1N,2.054191942,G2,A,mono-constituent,None,Uncharged
A-1122,"InChI=1S/C18H13ClN2O6S.Mn/c1-9-6-15(28(25,26)27)14(8-13(9)19)20-21-16-11-5-3-2-4-10(11)7-12(17(16)22)18(23)24;/h2-8,22H,1H3,(H,23,24)(H,25,26,27);/q;+2/p-2",-5.170401078,CC1=CC(=C(C=C1Cl)N=NC1=C(O)C(=CC2=CC=CC=C12)C([O-])=O)S([O-])(=O)=O,0.553816939,G2,A,mono-constituent,None,Negative
A-1123,"InChI=1S/C22H20N2O4/c1-13-3-7-15(8-4-13)23-19-11-18(22(27)28)20(12-17(19)21(25)26)24-16-9-5-14(2)6-10-16/h3-12,23-24H,1-2H3,(H,25,26)(H,27,28)",-5.070513482,CC1=CC=C(NC2=CC(C([O-])=O)=C([NH2+]C3=CC=C(C)C=C3)C=C2C([O-])=O)C=C1,0,G1,A,mono-constituent,None,Zwitterion
A-1125,"InChI=1S/C19H16ClNO4/c1-24-17-10-15(18(25-2)9-14(17)20)21-19(23)13-7-11-5-3-4-6-12(11)8-16(13)22/h3-10,22H,1-2H3,(H,21,23)",-5.062270146,COC1=CC(NC(=O)C2=CC3=CC=CC=C3C=C2O)=C(OC)C=C1Cl,0,G1,A,mono-constituent,None,Uncharged
A-1126,"InChI=1S/C12H22O2/c1-5-7-8-11(6-2)9-14-12(13)10(3)4/h11H,3,5-9H2,1-2,4H3",-4.805974161,CCCCC(CC)COC(=O)C(C)=C,0.282135457,G5,A,mono-constituent,None,Uncharged
A-1127,"InChI=1S/C8H17Cl/c1-3-5-6-8(4-2)7-9/h8H,3-7H2,1-2H3",-4.680882096,CCCCC(CC)CCl,0.754291048,G2,A,mono-constituent,None,Uncharged
A-1128,"InChI=1S/C14H13N3O2/c15-11-5-1-10(2-6-11)14(19)17-12-7-3-9(4-8-12)13(16)18/h1-8H,15H2,(H2,16,18)(H,17,19)",-4.915649994,NC(=O)C1=CC=C(NC(=O)C2=CC=C(N)C=C2)C=C1,0,G1,A,mono-constituent,None,Uncharged
A-1129,"InChI=1S/C12H26O.CH4/c1-2-3-4-5-6-7-8-9-10-11-12-13;/h13H,2-12H2,1H3;1H4",-4.81481019,CCCCCCCCCCCCO,0.055575226,G3,A,multi-constituent,Multi-constituent Substances,Uncharged
A-1132,"InChI=1S/C16H26O4/c1-3-15(17)19-13-11-9-7-5-6-8-10-12-14-20-16(18)4-2/h3-4H,1-2,5-14H2",-4.960875455,C=CC(=O)OCCCCCCCCCCOC(=O)C=C,0,G1,A,mono-constituent,None,Uncharged
A-1133,"InChI=1S/C20H32O2/c1-12-10-14(21)11-13-4-5-15-16-6-7-18(22)19(16,2)9-8-17(15)20(12,13)3/h12-13,15-18,22H,4-11H2,1-3H3/t12-,13-,15-,16-,17-,18-,19-,20-/m0/s1",-5.006428958,CC1CC(=O)CC2CCC3C4CCC(O)C4(C)CCC3C12C,0,G1,A,mono-constituent,None,Uncharged
A-1134,"InChI=1S/C22H40N2O2/c1-19(2)16-21(17-20(3,4)24-19)18(25)23-22(26-21)14-12-10-8-6-5-7-9-11-13-15-22/h24H,5-17H2,1-4H3,(H,23,25)",-5.084664439,CC1(C)CC2(CC(C)(C)[NH2+]1)OC1(CCCCCCCCCCC1)NC2=O,0,G1,A,mono-constituent,None,Positive
A-1135,"InChI=1S/C16H26O/c1-7-15(3,4)12-9-10-14(17)13(11-12)16(5,6)8-2/h9-11,17H,7-8H2,1-6H3",-4.892804854,CCC(C)(C)C1=CC=C(O)C(=C1)C(C)(C)CC,0,G1,A,mono-constituent,None,Uncharged
A-1137,"InChI=1S/3C10H20O2S.CH3.Sn/c3*1-3-5-6-9(4-2)7-12-10(11)8-13;;/h3*9,13H,3-8H2,1-2H3;1H3;/q;;;;+3/p-3",-5.394292294,CCCCC(CC)COC(=O)CS[Sn](C)(SCC(=O)OCC(CC)CCCC)SCC(=O)OCC(CC)CCCC,0.195463383,G5,A,mono-constituent,None,Uncharged
A-1139,InChI=1S/C6H8Cl2O5/c7-5(9)12-3-1-11-2-4-13-6(8)10/h1-4H2,-4.886549003,ClC(=O)OCCOCCOC(Cl)=O,0,G1,A,mono-constituent,Unstable,Uncharged
A-1140,"InChI=1S/3C2H2O4.2Lu/c3*3-1(4)2(5)6;;/h3*(H,3,4)(H,5,6);;/q;;;2*+3/p-6",-5.311038629,[Lu+3],0.027744843,G5,A,mono-constituent,Non Valid pH,Uncharged