ID,InChI,Solubility,SMILEScurated,SD,Group,Dataset,Composition,Error,Charge
B-969,"InChI=1S/C24H40O4/c1-14(4-7-21(27)28)17-5-6-18-22-19(9-11-24(17,18)3)23(2)10-8-16(25)12-15(23)13-20(22)26/h14-20,22,25-26H,4-13H2,1-3H3,(H,27,28)/t14-,15+,16-,17-,18+,19+,20-,22+,23+,24-/m1/s1",-3.6402,CC(CCC([O-])=O)C1CCC2C3C(O)CC4CC(O)CCC4(C)C3CCC12C,0,G1,B,None,None,Negative
B-970,"InChI=1S/C18H20O2/c1-18-9-8-14-13-5-3-12(19)10-11(13)2-4-15(14)16(18)6-7-17(18)20/h3-5,10,14,16,19H,2,6-9H2,1H3/t14-,16+,18+/m1/s1",-5.2795,CC12CCC3C(=CCC4=CC(O)=CC=C34)C1CCC2=O,0,G1,B,None,None,Uncharged
B-971,"InChI=1S/C16H12O6/c17-10-2-1-8-13-9-4-12(19)11(18)3-7(9)5-16(13,21)6-22-15(8)14(10)20/h1-4,17,19-21H,5-6H2",-2.6994,OC1=CC=C2C3=C4C=C(O)C(=O)C=C4CC3(O)COC2=C1O,0,G1,B,None,None,Uncharged
B-972,"InChI=1S/C26H43NO6/c1-14(4-7-22(31)27-13-23(32)33)17-5-6-18-24-19(12-21(30)26(17,18)3)25(2)9-8-16(28)10-15(25)11-20(24)29/h14-21,24,28-30H,4-13H2,1-3H3,(H,27,31)(H,32,33)/t14-,15+,16-,17-,18+,19+,20-,21+,24+,25+,26-/m1/s1",-5.1495,CC(CCC(=O)NCC([O-])=O)C1CCC2C3C(O)CC4CC(O)CCC4(C)C3CC(O)C12C,0,G1,B,None,None,Negative
B-973,"InChI=1S/C22H22O8/c1-25-16-4-10(5-17(26-2)21(16)27-3)18-11-6-14-15(30-9-29-14)7-12(11)20(23)13-8-28-22(24)19(13)18/h4-7,13,18-20,23H,8-9H2,1-3H3/t13-,18+,19+,20-/m0/s1",-3.6174,COC1=CC(=CC(OC)=C1OC)C1C2C(COC2=O)C(O)C2=CC3=C(OCO3)C=C12,0,G1,B,None,None,Uncharged
B-974,"InChI=1S/C20H18N4.ClH/c1-12-10-17-19(11-16(12)22)24(14-6-4-3-5-7-14)18-9-8-15(21)13(2)20(18)23-17;/h3-11,22H,21H2,1-2H3;1H",-0.8462,CC1=C(N)C=C2C(=C1)N=C1C(C)=C(N)C=CC1=[N+]2C1=CC=CC=C1,0,G1,B,None,None,Positive
B-976,"InChI=1S/C20H14/c1-2-7-16-13(4-1)8-10-17-18-11-9-14-5-3-6-15(20(14)18)12-19(16)17/h1-8,10,12H,9,11H2",-7.8613,C1CC2=C3C1=CC=CC3=CC1=C2C=CC2=C1C=CC=C2,0.00565,G3,B,None,None,Uncharged
B-978,"InChI=1S/C7H5N5O8/c1-8(12(19)20)7-5(10(15)16)2-4(9(13)14)3-6(7)11(17)18/h2-3H,1H3",-3.5889,CN(C1=C(C=C(C=C1[N+]([O-])=O)[N+]([O-])=O)[N+]([O-])=O)[N+]([O-])=O,0,G1,B,None,None,PureChargeSeparation
B-979,"InChI=1S/C15H22O9/c16-4-6-3-8(18)7-1-2-22-14(10(6)7)24-15-13(21)12(20)11(19)9(5-17)23-15/h1-3,7-21H,4-5H2/t7-,8+,9+,10+,11+,12-,13+,14-,15-/m0/s1",0.0119,OCC1OC(OC2OC=CC3C(O)C=C(CO)C23)C(O)C(O)C1O,0,G1,B,None,None,Uncharged
B-981,"InChI=1S/C10H12O2/c1-6-4-7(2)9(10(11)12)8(3)5-6/h4-5H,1-3H3,(H,11,12)",-2.3566,CC1=CC(C)=C(C([O-])=O)C(C)=C1,0,G1,B,None,None,Negative
B-982,"InChI=1S/C8H8O4/c1-4-2-5(9)7(8(11)12)6(10)3-4/h2-3,9-10H,1H3,(H,11,12)",-2.0496,CC1=CC(O)=C(C([O-])=O)C(O)=C1,0,G1,B,None,None,Negative
B-983,"InChI=1S/C4H3N3O5/c8-2-1(7(11)12)3(9)6-4(10)5-2/h1H,(H2,5,6,8,9,10)",-2.284,[O-]C1=C(C(=O)[N-]C(=O)N1)[N+]([O-])=O,0.018,G3,B,None,None,Negative
B-984,"InChI=1S/C15H18O3/c1-8-10-4-6-15(3)7-5-11(16)9(2)12(15)13(10)18-14(8)17/h5,7-8,10,13H,4,6H2,1-3H3/t8-,10-,13-,15-/m0/s1",-3.0905,CC1C2CCC3(C)C=CC(=O)C(C)=C3C2OC1=O,0,G1,B,None,None,Uncharged
B-985,"InChI=1S/C19H30O2/c1-18-9-7-13(20)11-12(18)3-4-14-15-5-6-17(21)19(15,2)10-8-16(14)18/h12-16,20H,3-11H2,1-2H3/t12-,13-,14-,15-,16-,18-,19-/m0/s1",-4.1577,CC12CCC3C(CCC4CC(O)CCC34C)C1CCC2=O,0,G1,B,None,None,Uncharged
B-986,"InChI=1S/C9H15NO3/c1-10-5-2-3-6(10)8(9(12)13)7(11)4-5/h5-8,11H,2-4H2,1H3,(H,12,13)/t5?,6?,7-,8+/m0/s1",-0.0173,C[NH+]1C2CCC1C(C(O)C2)C([O-])=O,0,G1,B,None,None,Zwitterion
B-987,"InChI=1S/C7H7N5O2/c1-11-5-4(8-3-9-10-5)6(13)12(2)7(11)14/h3H,1-2H3",-1.9849,CN1C(=O)N(C)C2=NN=CN=C2C1=O,0,G1,B,None,None,Uncharged
B-988,"InChI=1S/C15H16O3/c1-10(2)4-7-12-13(17-3)8-5-11-6-9-14(16)18-15(11)12/h4-6,8-9H,7H2,1-3H3",-4.3087,COC1=CC=C2C=CC(=O)OC2=C1CC=C(C)C,0,G1,B,None,None,Uncharged
B-989,"InChI=1S/C15H18N2O6/c1-5-10(4)12-7-11(16(19)20)8-13(17(21)22)15(12)23-14(18)6-9(2)3/h6-8,10H,5H2,1-4H3",-5.5083,CCC(C)C1=CC(=CC(=C1OC(=O)C=C(C)C)[N+]([O-])=O)[N+]([O-])=O,0,G1,B,None,None,PureChargeSeparation
B-990,"InChI=1S/C10H16O2/c1-6-3-4-8-7(2)10(11)12-5-9(6)8/h6-9H,3-5H2,1-2H3",-1.9249,CC1CCC2C1COC(=O)C2C,0,G1,B,None,None,Uncharged
B-992,"InChI=1S/C11H10N2O2/c14-9-5-6-13-10(9)12-8-4-2-1-3-7(8)11(13)15/h1-4,9,14H,5-6H2/t9-/m0/s1",-2.106,OC1CCN2C1=NC1=CC=CC=C1C2=O,0,G1,B,None,None,Uncharged
B-993,"InChI=1S/C12H16N2O/c1-13-6-9-5-10(8-13)11-3-2-4-12(15)14(11)7-9/h2-4,9-10H,5-8H2,1H3/t9-,10-/m0/s1",0.6484,C[NH+]1CC2CC(C1)C1=CC=CC(=O)N1C2,0,G1,B,None,None,Positive
B-994,"InChI=1S/C6H4N4O2/c11-5-3-4(8-2-1-7-3)9-6(12)10-5/h1-2H,(H2,8,9,10,11,12)",-2.1183,O=C1NC(=O)C2=NC=CN=C2[N-]1,0,G1,B,None,None,Negative
B-995,"InChI=1S/C8H9NO4/c1-4-5(2-3-6(10)11)8(13)9-7(4)12/h2-3H2,1H3,(H,10,11)(H,9,12,13)",-0.6608,CC1=C(CCC([O-])=O)C(=O)NC1=O,0,G1,B,None,None,Negative
B-996,"InChI=1S/C6H12O5/c7-2-1-3(8)5(10)6(11)4(2)9/h2-11H,1H2/t2-,3-,4+,5+/m1/s1",-0.1739,OC1CC(O)C(O)C(O)C1O,0,G1,B,None,None,Uncharged
B-997,"InChI=1S/C15H18/c1-10(2)13-7-5-11(3)14-8-6-12(4)15(14)9-13/h5-10H,1-4H3",-5.4752,CC(C)C1=CC2=C(C)C=CC2=C(C)C=C1,0,G1,B,None,None,Uncharged
B-998,"InChI=1S/C19H26O12/c1-27-17(26)8-4-2-3-5-10(8)30-19-16(25)14(23)13(22)11(31-19)7-29-18-15(24)12(21)9(20)6-28-18/h2-5,9,11-16,18-25H,6-7H2,1H3",-0.7418,COC(=O)C1=CC=CC=C1OC1OC(COC2OCC(O)C(O)C2O)C(O)C(O)C1O,0,G1,B,None,None,Uncharged
B-999,"InChI=1S/C9H7NO/c11-9-8-4-2-1-3-7(8)5-6-10-9/h1-6H,(H,10,11)",-2.4842,O=C1NC=CC2=CC=CC=C12,0,G1,B,None,None,Uncharged
B-1000,"InChI=1S/C15H12O3/c1-8-5-10-7-9-3-2-4-11(16)13(9)15(18)14(10)12(17)6-8/h2-7,16-18H,1H3",-3.0585,CC1=CC2=CC3=CC=CC(O)=C3C(O)=C2C(O)=C1,0,G1,B,None,None,Uncharged
B-1001,"InChI=1S/C6H5N5O3/c7-6-10-2-1(3(12)11-6)8-4(13)5(14)9-2/h(H,8,13)(H4,7,9,10,11,12,14)",-5.1655,NC1=NC(=O)C2=C(N1)[NH+]=C([O-])C(=O)N2,0,G1,B,None,None,Zwitterion
B-1002,"InChI=1S/C9H8O2/c1-7(9(10)11)8-5-3-2-4-6-8/h2-6H,1H2,(H,10,11)",-2.0568,[O-]C(=O)C(=C)C1=CC=CC=C1,0,G1,B,None,None,Negative
B-1003,"InChI=1S/C9H13NO/c1-7(10)9(11)8-5-3-2-4-6-8/h2-7,9,11H,10H2,1H3/t7-,9+/m0/s1",-0.8786,CC([NH3+])C(O)C1=CC=CC=C1,0,G1,B,None,None,Positive
B-1004,"InChI=1S/C6H12O6/c7-1-2-3(8)4(9)5(10)6(11)12-2/h2-11H,1H2/t2-,3-,4+,5-,6+/m1/s1",0.4433,OCC1OC(O)C(O)C(O)C1O,0,G1,B,None,None,Uncharged
B-1005,"InChI=1S/C12H12O2/c13-11-6-10(7-12(14)8-11)9-4-2-1-3-5-9/h1-5,8,10,13H,6-7H2/t10-/m1/s1",-2.5113,O=C1CC(CC(=O)C1)C1=CC=CC=C1,0,G1,B,None,None,Uncharged
B-1006,"InChI=1S/C10H14N2/c1-2-7-12-10(5-1)9-4-3-6-11-8-9/h3-4,6,8,10,12H,1-2,5,7H2/t10-/m0/s1",0.7898,C1CCC([NH2+]C1)C1=CC=CN=C1,0,G1,B,None,None,Positive
B-1007,"InChI=1S/C7H8O3/c8-4-5-3-6(9)1-2-7(5)10/h1-3,8-10H,4H2",0.8534,OCC1=CC(O)=CC=C1O,0,G1,B,None,None,Uncharged
B-1008,"InChI=1S/C13H11N3O2/c17-13(10-4-2-1-3-5-10)15-14-11-6-8-12(16-18)9-7-11/h1-9,14H,(H,15,17)",-4.6835,O=NC1=CC=C(NNC(=O)C2=CC=CC=C2)C=C1,0,G1,B,None,None,Uncharged
B-1009,"InChI=1S/C13H11N3O2/c17-12-4-2-1-3-11(12)9-15-16-13(18)10-5-7-14-8-6-10/h1-9,15H,(H,16,18)/b11-9-",-3.6835,OC1=CC=CC=C1C=NNC(=O)C1=CC=NC=C1,0,G1,B,None,None,Uncharged
B-1010,"InChI=1S/C8H9N/c1-2-4-8-7(3-1)5-6-9-8/h1-4,9H,5-6H2",-1.0427,C1CC2=CC=CC=C2N1,0,G1,B,None,None,Uncharged
B-1011,"InChI=1S/C5H8O/c1-3-5(2)4-6/h3-4H,1-2H3/b5-3+",-0.527,CC=C(C)C=O,0,G1,B,None,None,Uncharged
B-1012,"InChI=1S/C4H8O2/c1-4-5-2-3-6-4/h4H,2-3H2,1H3",0.8789,CC1OCCO1,0,G1,B,None,None,Uncharged
B-1013,"InChI=1S/C7H10O/c8-7-4-5-1-2-6(7)3-5/h5-6H,1-4H2",-1.7565,O=C1CC2CCC1C2,0,G1,B,None,None,Uncharged
B-1014,"InChI=1S/C7H4O7/c8-2-1-3(6(10)11)14-5(4(2)9)7(12)13/h1,12-13H,(H,10,11)",-1.377,OC1=C(OC(=CC1=O)C([O-])=O)C([O-])=O,0,G1,B,None,None,Negative
B-1015,"InChI=1S/C9H10O3/c1-6(10)7-3-4-8(11)9(5-7)12-2/h3-5,11H,1-2H3",-1.5216,COC1=CC(=CC=C1O)C(C)=O,0,G1,B,None,None,Uncharged
B-1016,"InChI=1S/C5H11NO2/c1-2-3-4(6)5(7)8/h4H,2-3,6H2,1H3,(H,7,8)/t4-/m1/s1",-0.0687,CCCC([NH3+])C([O-])=O,0,G1,B,None,None,Zwitterion
B-1017,"InChI=1S/C5H6O4/c1-3(5(8)9)2-4(6)7/h2H,1H3,(H,6,7)(H,8,9)/b3-2-",0.7795,CC(=CC([O-])=O)C([O-])=O,0.24025,G3,B,None,None,Negative
B-1018,"InChI=1S/C10H14O/c1-7(2)9-5-4-8(3)10(11)6-9/h4-7,11H,1-3H3",-2.0798,CC(C)C1=CC=C(C)C(O)=C1,0,G1,B,None,None,Uncharged
B-1019,"InChI=1S/C15H21NO2/c1-11-9-13(10-15(2,3)16-11)18-14(17)12-7-5-4-6-8-12/h4-8,11,13,16H,9-10H2,1-3H3",-1.922,CC1CC(CC(C)(C)[NH2+]1)OC(=O)C1=CC=CC=C1,0,G1,B,None,None,Positive
B-1020,"InChI=1S/C8H7NO3/c10-7(8(11)12)9-6-4-2-1-3-5-6/h1-5H,(H,9,10)(H,11,12)",-1.3019,[O-]C(=O)C(=O)NC1=CC=CC=C1,0,G1,B,None,None,Negative
B-1021,"InChI=1S/C10H12ClNO/c11-7-6-10(13)12-8-9-4-2-1-3-5-9/h1-5H,6-8H2,(H,12,13)",-3.2959,ClCCC(=O)NCC1=CC=CC=C1,0,G1,B,None,None,Uncharged
B-1022,"InChI=1S/C5H6N2O4/c6-5(11)7-3(8)1-2-4(9)10/h1-2H,(H,9,10)(H3,6,7,8,11)",-1.9202,NC(=O)NC(=O)C=CC([O-])=O,0,G1,B,None,None,Negative
B-1023,"InChI=1S/C6H10O2S4/c1-3-7-5(9)11-12-6(10)8-4-2/h3-4H2,1-2H3",-4.9432,CCOC(=S)SSC(=S)OCC,0,G1,B,None,None,Uncharged
B-1025,InChI=1S/C3H6O/c1-2-4-3-1/h1-3H2,1.236,C1COC1,0,G1,B,None,None,Uncharged
B-1027,"InChI=1S/C4H6O2/c1-2-3-4(5)6/h2-3H,1H3,(H,5,6)/b3-2-",1.065,CC=CC([O-])=O,0,G1,B,None,None,Negative
B-1029,"InChI=1S/C5H6N2/c6-5-1-3-7-4-2-5/h1-4H,(H2,6,7)",-0.0529,NC1=CC=[NH+]C=C1,0,G1,B,None,None,Positive
B-1030,"InChI=1S/C5H6N2/c6-5-3-1-2-4-7-5/h1-4H,(H2,6,7)",0.9757,NC1=CC=CC=N1,0.025315962,G3,B,None,None,Uncharged
B-1031,InChI=1S/C4H8S2/c1-2-6-4-3-5-1/h1-4H2,-1.6029,C1CSCCS1,0,G1,B,None,None,Uncharged
B-1032,"InChI=1S/C8H14O4/c9-7(10)5-3-1-2-4-6-8(11)12/h1-6H2,(H,9,10)(H,11,12)",-1.1673,[O-]C(=O)CCCCCCC([O-])=O,0.43635,G3,B,None,None,Negative
B-1034,InChI=1S/C4H8Cl2S/c5-1-3-7-4-2-6/h1-4H2,-2.3666,ClCCSCCCl,0,G1,B,None,None,Uncharged
B-1035,"InChI=1S/C6H6O4/c7-5(8)3-1-2-4-6(9)10/h1-4H,(H,7,8)(H,9,10)/b3-1-,4-2-",-2.8516,[O-]C(=O)C=CC=CC([O-])=O,0,G1,B,None,None,Negative
B-1036,InChI=1S/CIN/c2-1-3,-0.6333,IC#N,0,G1,B,None,None,Uncharged
B-1037,"InChI=1S/C4H9Br/c1-4(2,3)5/h1-3H3",-2.3586,CC(C)(C)Br,0,G1,B,None,None,Uncharged
B-1038,"InChI=1S/C10H18O/c1-9(2)7-4-5-10(9,3)8(11)6-7/h7-8,11H,4-6H2,1-3H3",-2.3202,CC1(C)C2CCC1(C)C(O)C2,0.2149,G3,B,None,None,Uncharged
B-1040,"InChI=1S/C27H40O6/c1-24(2,3)14-22(31)33-15-21(30)27(32)11-9-19-18-7-6-16-12-17(28)8-10-25(16,4)23(18)20(29)13-26(19,27)5/h12,18-20,23,29,32H,6-11,13-15H2,1-5H3",-5.5111,CC(C)(C)CC(=O)OCC(=O)C1(O)CCC2C3CCC4=CC(=O)CCC4(C)C3C(O)CC12C,0,G1,B,None,None,Uncharged
B-1041,"InChI=1S/CN4O8/c6-2(7)1(3(8)9,4(10)11)5(12)13",-2.3381,[O-][N+](=O)C([N+]([O-])=O)([N+]([O-])=O)[N+]([O-])=O,0,G1,B,None,None,PureChargeSeparation
B-1042,"InChI=1S/C23H30N2O4/c1-24-7-6-23-16-3-4-18(26)22(23)29-21-19(5-2-15(20(21)23)14-17(16)24)28-13-10-25-8-11-27-12-9-25/h2-5,16-18,22,26H,6-14H2,1H3/t16?,17-,18+,22+,23+/m1/s1",-1.2994,C[NH+]1CCC23C4OC5=C2C(CC1C3C=CC4O)=CC=C5OCCN1CCOCC1,0,G1,B,None,None,Positive
B-1043,"InChI=1S/C11H17N3O3/c1-2-11(14-6-4-3-5-7-14)8(15)12-10(17)13-9(11)16/h2-7H2,1H3,(H2,12,13,15,16,17)",-2.1562,CCC1(N2CCCCC2)C(=O)NC(=O)NC1=O,0,G1,B,None,None,Uncharged
B-1045,"InChI=1S/C27H42O3/c1-16-7-12-27(29-15-16)17(2)24-23(30-27)14-22-20-6-5-18-13-19(28)8-10-25(18,3)21(20)9-11-26(22,24)4/h5,16-17,19-24,28H,6-15H2,1-4H3/t16-,17+,19+,20-,21+,22+,23+,24+,25+,26+,27-/m1/s1",-7.3166,CC1C2C(CC3C4CC=C5CC(O)CCC5(C)C4CCC23C)OC11CCC(C)CO1,0,G1,B,None,None,Uncharged
B-1046,"InChI=1S/C18H32O16/c19-1-5-8(22)11(25)13(27)16(31-5)30-3-7-9(23)12(26)14(28)17(32-7)34-18(4-21)15(29)10(24)6(2-20)33-18/h5-17,19-29H,1-4H2/t5-,6-,7-,8+,9-,10-,11+,12+,13-,14-,15+,16+,17-,18+/m1/s1",-0.3962,OCC1OC(CO)(OC2OC(COC3OC(CO)C(O)C(O)C3O)C(O)C(O)C2O)C(O)C1O,0,G1,B,None,None,Uncharged
B-1047,"InChI=1S/C9H21O4P/c1-4-7-11-14(10,12-8-5-2)13-9-6-3/h4-9H2,1-3H3",-1.5412,CCCOP(=O)(OCCC)OCCC,0,G1,B,None,None,Uncharged
B-1049,"InChI=1S/C4H7Cl/c1-4(2)3-5/h3H,1-2H3",-1.9569,CC(C)=CCl,0,G1,B,None,None,Uncharged
B-1050,"InChI=1S/C4H8O/c1-4(2)3-5/h5H,1,3H2,2H3",0.4298,CC(=C)CO,0,G1,B,None,None,Uncharged
B-1051,"InChI=1S/C4H10S/c1-3-4(2)5/h4-5H,3H2,1-2H3",-1.8346,CCC(C)S,0,G1,B,None,None,Uncharged
B-1052,"InChI=1S/C6H10/c1-5(2)6(3)4/h1,3H2,2,4H3",-2.4014,CC(=C)C(C)=C,0,G1,B,None,None,Uncharged
B-1054,"InChI=1S/C4H8O2/c1-3(5)4(2)6/h3,5H,1-2H3",1.055,CC(O)C(C)=O,0,G1,B,None,None,Uncharged
B-1055,"InChI=1S/C20H30O2/c1-13(2)14-6-8-16-15(12-14)7-9-17-19(16,3)10-5-11-20(17,4)18(21)22/h7,12-13,16-17H,5-6,8-11H2,1-4H3,(H,21,22)/t16-,17+,19+,20+/m0/s1",-3.7959,CC(C)C1=CC2=CCC3C(C)(CCCC3(C)C([O-])=O)C2CC1,0,G1,B,None,None,Negative
B-1056,"InChI=1S/C19H30O3/c1-18-8-7-12(20)9-11(18)3-4-13-14-5-6-16(22)19(14,2)10-15(21)17(13)18/h11-15,17,20-21H,3-10H2,1-2H3/t11?,12-,13?,14?,15?,17?,18?,19?/m0/s1",-3.5932,CC12CC(O)C3C(CCC4CC(O)CCC34C)C1CCC2=O,0,G1,B,None,None,Uncharged
B-1057,"InChI=1S/C9H10O3/c1-9(12,8(10)11)7-5-3-2-4-6-7/h2-6,12H,1H3,(H,10,11)",-0.8949,CC(O)(C([O-])=O)C1=CC=CC=C1,0,G1,B,None,None,Negative
B-1060,"InChI=1S/C4H6O4/c1-2(3(5)6)4(7)8/h2H,1H3,(H,5,6)(H,7,8)",0.7597,CC(C([O-])=O)C([O-])=O,0,G1,B,None,None,Negative
B-1061,"InChI=1S/C5H11NO2/c1-3(2)4(6)5(7)8/h3-4H,6H2,1-2H3,(H,7,8)",-0.1971,CC(C)C([NH3+])C([O-])=O,0.073728226,G5,B,None,None,Zwitterion
B-1064,"InChI=1S/C22H22O8/c1-25-14-5-10(6-15(26-2)20(14)27-3)17-12-7-16-21(30-9-29-16)19(23)13(12)4-11-8-28-22(24)18(11)17/h5-7,11,17-18,23H,4,8-9H2,1-3H3/t11-,17+,18-/m0/s1",-4.5035,COC1=CC(=CC(OC)=C1OC)C1C2C(COC2=O)CC2=C(O)C3=C(OCO3)C=C12,0,G1,B,None,None,Uncharged
B-1065,"InChI=1S/C20H12O5/c21-11-5-7-15-17(9-11)24-18-10-12(22)6-8-16(18)20(15)14-4-2-1-3-13(14)19(23)25-20/h1-10,21-22H",-3.8226,OC1=CC=C2C(OC3=CC(O)=CC=C3C22OC(=O)C3=CC=CC=C23)=C1,0.7463,G2,B,None,None,Uncharged
B-1066,"InChI=1S/C10H10O5/c1-14-7-4-3-6(5-11)8(10(12)13)9(7)15-2/h3-5H,1-2H3,(H,12,13)",-1.9247,COC1=CC=C(C=O)C(C([O-])=O)=C1OC,0,G1,B,None,None,Negative
B-1067,"InChI=1S/C13H17N3O3/c1-10(17)15(4)16(11-8-6-5-7-9-11)13(19)12(18)14(2)3/h5-9H,1-4H3",-0.5345,CN(C)C(=O)C(=O)N(N(C)C(C)=O)C1=CC=CC=C1,0,G1,B,None,None,Uncharged
B-1069,"InChI=1S/C9H5Br2NO/c10-6-4-7(11)9(13)8-5(6)2-1-3-12-8/h1-4,13H",-4.1938,OC1=C(Br)C=C(Br)C2=CC=CN=C12,0,G1,B,None,None,Uncharged
B-1070,"InChI=1S/C20H26N2O2/c1-3-13-12-22-9-7-14(13)10-19(22)20(23)16-6-8-21-18-5-4-15(24-2)11-17(16)18/h4-6,8,11,13-14,19-20,23H,3,7,9-10,12H2,1-2H3",-3.0514,CCC1C[NH+]2CCC1CC2C(O)C1=CC=NC2=CC=C(OC)C=C12,0,G1,B,None,None,Positive
B-1071,"InChI=1S/C10H8O6S2/c11-17(12,13)8-4-5-9-7(6-8)2-1-3-10(9)18(14,15)16/h1-6H,(H,11,12,13)(H,14,15,16)",0.5402,[O-]S(=O)(=O)C1=CC2=CC=CC(=C2C=C1)S([O-])(=O)=O,0,G1,B,None,None,Negative
B-1072,"InChI=1S/C16H21NO2/c1-12(2)17-10-14(18)11-19-16-9-5-7-13-6-3-4-8-15(13)16/h3-9,12,14,17-18H,10-11H2,1-2H3",-3.6202,CC(C)[NH2+]CC(O)COC1=CC=CC2=CC=CC=C12,0.211792372,G5,B,None,None,Positive
B-1073,"InChI=1S/C10H11N3O2/c11-7(10(14)15)5-9-6-3-1-2-4-8(6)12-13-9/h1-4,7H,5,11H2,(H,12,13)(H,14,15)",-1.4091,[NH3+]C(CC1=NNC2=CC=CC=C12)C([O-])=O,0,G1,B,None,None,Zwitterion
B-1076,"InChI=1S/C6H10O8/c7-1(3(9)5(11)12)2(8)4(10)6(13)14/h1-4,7-10H,(H,11,12)(H,13,14)/t1-,2+,3-,4+",-0.3225,OC(C(O)C(O)C([O-])=O)C(O)C([O-])=O,0,G1,B,None,None,Negative
B-1077,"InChI=1S/C6H12O7.Na/c7-1-2(8)3(9)4(10)5(11)6(12)13;/h2-5,7-11H,1H2,(H,12,13);/q;+1/p-1",0.4321,OCC(O)C(O)C(O)C(O)C([O-])=O,0,G1,B,None,None,Negative
B-1078,"InChI=1S/2C6H12O7.Cu/c2*7-1-2(8)3(9)4(10)5(11)6(12)13;/h2*2-5,7-11H,1H2,(H,12,13);/q;;+2/p-2/t2*2-,3-,4+,5-;/m11./s1",-0.1798,OCC(O)C(O)C(O)C(O)C([O-])=O,0,G1,B,None,None,Negative
B-1079,"InChI=1S/C5H4O2S/c6-5(7)4-2-1-3-8-4/h1-3H,(H,6,7)",-1.2327,[O-]C(=O)C1=CC=CS1,0,G1,B,None,None,Negative
B-1080,"InChI=1S/C10H14/c1-8(2)10-7-5-4-6-9(10)3/h4-8H,1-3H3",-3.7606,CC(C)C1=CC=CC=C1C,0,G1,B,None,None,Uncharged
B-1081,"InChI=1S/C14H8N2O8/c17-11-3-1-7(15(21)22)5-9(11)13(19)14(20)10-6-8(16(23)24)2-4-12(10)18/h1-6,17-18H",-3.5214,[O-]C1=CC=C(C=C1C(=O)C(=O)C1=CC(=CC=C1[O-])[N+]([O-])=O)[N+]([O-])=O,0,G1,B,None,None,Negative
B-1082,"InChI=1S/C8H8O4/c1-4(9)5-2-3-6(10)8(12)7(5)11/h2-3,10-12H,1H3",-2.0216,CC(=O)C1=CC=C(O)C(O)=C1O,0,G1,B,None,None,Uncharged
B-1083,"InChI=1S/C9H6O6/c10-7(11)4-1-2-5(8(12)13)6(3-4)9(14)15/h1-3H,(H,10,11)(H,12,13)(H,14,15)",-1.0003,[O-]C(=O)C1=CC=C(C([O-])=O)C(=C1)C([O-])=O,0.30015,G3,B,None,None,Negative
B-1084,"InChI=1S/C7H4N2O6/c10-7(11)4-1-2-5(8(12)13)6(3-4)9(14)15/h1-3H,(H,10,11)",-1.5005,[O-]C(=O)C1=CC=C(C(=C1)[N+]([O-])=O)[N+]([O-])=O,0,G1,B,None,None,Negative
B-1085,"InChI=1S/C9H16N2O2/c1-4-5-7(6(2)3)8(12)11-9(10)13/h4,6-7H,1,5H2,2-3H3,(H3,10,11,12,13)",-2.7469,CC(C)C(CC=C)C(=O)NC(N)=O,0,G1,B,None,None,Uncharged
B-1087,"InChI=1S/C14H10O/c15-14-12-7-3-1-5-10(12)9-11-6-2-4-8-13(11)14/h1-9,15H",-4.7329,OC1=C2C=CC=CC2=CC2=CC=CC=C12,0,G1,B,None,None,Uncharged
B-1088,"InChI=1S/C14H12/c1-12(13-8-4-2-5-9-13)14-10-6-3-7-11-14/h2-11H,1H2",-4.4363,C=C(C1=CC=CC=C1)C1=CC=CC=C1,0,G1,B,None,None,Uncharged
B-1090,"InChI=1S/C7H12N2O2/c10-8-6-4-2-1-3-5-7(6)9-11/h8,10H,1-5H2",-1.4249,ON=C1CCCCCC1=NO,0,G1,B,None,None,Uncharged
B-1091,"InChI=1S/C10H8O3/c1-12-8-4-2-7-3-5-10(11)13-9(7)6-8/h2-6H,1H3",-3.1221,COC1=CC=C2C=CC(=O)OC2=C1,0,G1,B,None,None,Uncharged
B-1092,"InChI=1S/C11H15NO5/c1-15-9-4-2-3-5-10(9)16-6-8(13)7-17-11(12)14/h2-5,8,13H,6-7H2,1H3,(H2,12,14)",-1.5251,COC1=CC=CC=C1OCC(O)COC(N)=O,0.27005,G3,B,None,None,Uncharged
B-1093,"InChI=1S/C7H6O2.Na/c8-7(9)6-4-2-1-3-5-6;/h1-5H,(H,8,9);/q;+1/p-1",0.5864,[O-]C(=O)C1=CC=CC=C1,0,G1,B,None,None,Negative
B-1094,"InChI=1S/C12H12N4.ClH/c13-9-6-7-12(11(14)8-9)16-15-10-4-2-1-3-5-10;/h1-8H,13-14H2;1H",-4.0947,NC1=CC=C(N=NC2=CC=CC=C2)C(N)=C1,0,G1,B,None,None,Uncharged
B-1095,"InChI=1S/C10H10Cl2O3/c1-2-14-10(13)6-15-9-4-3-7(11)5-8(9)12/h3-5H,2,6H2,1H3",-3.3503,CCOC(=O)COC1=CC=C(Cl)C=C1Cl,0,G1,B,None,None,Uncharged
B-1096,"InChI=1S/C11H16O2/c1-2-3-4-5-9-6-7-10(12)8-11(9)13/h6-8,12-13H,2-5H2,1H3",-1.9548,CCCCCC1=CC=C(O)C=C1O,0,G1,B,None,None,Uncharged
B-1097,"InChI=1S/C9H19NO/c1-5-10(6-2)9(11)7-8(3)4/h8H,5-7H2,1-4H3",-0.5946,CCN(CC)C(=O)CC(C)C,0,G1,B,None,None,Uncharged
B-1098,"InChI=1S/C5H10N2S2/c1-6-3-7(2)5(8)9-4-6/h3-4H2,1-2H3",-1.7331,CN1CSC(=S)N(C)C1,0.19845,G3,B,None,None,Uncharged
B-1099,"InChI=1S/C3H6I2O/c4-1-3(6)2-5/h3,6H,1-2H2",-1.3971,OC(CI)CI,0,G1,B,None,None,Uncharged
B-1100,"InChI=1S/C3H8N2S/c1-4-3(6)5-2/h1-2H3,(H2,4,5,6)",0.9823,CNC(=S)NC,0,G1,B,None,None,Uncharged
B-1101,"InChI=1S/C4H10O2/c1-4(5-2)6-3/h4H,1-3H3",1.0452,COC(C)OC,0,G1,B,None,None,Uncharged
B-1102,"InChI=1S/C7H12O4/c1-2-3-4-5(6(8)9)7(10)11/h5H,2-4H2,1H3,(H,8,9)(H,10,11)",0.4369,CCCCC(C([O-])=O)C([O-])=O,0,G1,B,None,None,Negative
B-1103,"InChI=1S/C10H14/c1-8(2)10-6-4-5-9(3)7-10/h4-8H,1-3H3",-3.4994,CC(C)C1=CC=CC(C)=C1,0,G1,B,None,None,Uncharged
B-1104,"InChI=1S/C7H10ClN3/c1-5-4-6(11(2)3)10-7(8)9-5/h4H,1-3H3",-1.2615,CN(C)C1=CC(C)=NC(Cl)=N1,0,G1,B,None,None,Uncharged
B-1105,"InChI=1S/C14H10O9/c15-7-2-6(3-8(16)11(7)18)14(22)23-10-4-5(13(20)21)1-9(17)12(10)19/h1-4,15-19H,(H,20,21)",-2.8092,OC1=CC(=CC(O)=C1O)C(=O)OC1=CC(=CC(O)=C1O)C([O-])=O,0.0096,G3,B,None,None,Negative
B-1106,"InChI=1S/C7H9N/c1-2-7-3-5-8-6-4-7/h3-6H,2H2,1H3",-0.0006,CCC1=CC=NC=C1,0.4138,G3,B,None,None,Uncharged
B-1108,InChI=1S/C6H2Br2ClNO/c7-4-1-3(10-9)2-5(8)6(4)11/h1-2H,-3.7068,ClN=C1C=C(Br)C(=O)C(Br)=C1,0,G1,B,None,None,Uncharged
B-1109,"InChI=1S/C10H13NO3/c1-11-9(10(13)14)6-7-2-4-8(12)5-3-7/h2-5,9,11-12H,6H2,1H3,(H,13,14)/t9-/m0/s1",-2.1325,C[NH2+]C(CC1=CC=C(O)C=C1)C([O-])=O,0,G1,B,None,None,Zwitterion
B-1110,"InChI=1S/C6H13Cl2N/c1-2-9(5-3-7)6-4-8/h2-6H2,1H3",-3.0265,CCN(CCCl)CCCl,0,G1,B,None,None,Uncharged
B-1111,"InChI=1S/C13H16O2/c1-2-3-11-15-13(14)10-9-12-7-5-4-6-8-12/h4-10H,2-3,11H2,1H3/b10-9+",-1.6112,CCCCOC(=O)C=CC1=CC=CC=C1,0,G1,B,None,None,Uncharged
B-1112,"InChI=1S/C8H10O/c1-9-7-8-5-3-2-4-6-8/h2-6H,7H2,1H3",-1.6098,COCC1=CC=CC=C1,0,G1,B,None,None,Uncharged
B-1113,"InChI=1S/C14H16N4/c1-18(2)14-9-7-13(8-10-14)17-16-12-5-3-11(15)4-6-12/h3-10H,15H2,1-2H3",-4.594,CN(C)C1=CC=C(C=C1)N=NC1=CC=C(N)C=C1,0,G1,B,None,None,Uncharged
B-1114,"InChI=1S/C7H6O3/c8-7(9)4-3-6-2-1-5-10-6/h1-5H,(H,8,9)/b4-3+",-1.8392,[O-]C(=O)C=CC1=CC=CO1,0,G1,B,None,None,Negative
B-1115,"InChI=1S/C7H14O2/c1-3-5-6-7(8)9-4-2/h3-6H2,1-2H3",-1.7706,CCCCC(=O)OCC,0.230999933,G5,B,None,None,Uncharged
B-1117,"InChI=1S/C7H14O2/c1-4-7(8)9-5-6(2)3/h6H,4-5H2,1-3H3",-1.8841,CCC(=O)OCC(C)C,0,G1,B,None,None,Uncharged
B-1118,"InChI=1S/C4H8O/c1-5-4-2-3-4/h4H,2-3H2,1H3",-0.1176,COC1CC1,0,G1,B,None,None,Uncharged
B-1119,InChI=1S/C2H2Br2/c3-1-2-4/h1-2H/b2-1-,-1.3195,BrC=CBr,0,G1,B,None,None,Uncharged
B-1120,"InChI=1S/C2H5BrO/c3-1-2-4/h4H,1-2H2",0.9032,OCCBr,0,G1,B,None,None,Uncharged