ID,InChI,Solubility,SMILEScurated,SD,Group,Dataset,Composition,Error,Charge
A-2845,"InChI=1S/C30H23N3O9S2.2Na/c1-18-9-5-7-13-24(18)42-25-14-8-6-12-22(25)32-33-28-26(44(39,40)41)16-20-15-21(43(36,37)38)17-23(27(20)29(28)34)31-30(35)19-10-3-2-4-11-19;;/h2-17,32H,1H3,(H,31,35)(H,36,37,38)(H,39,40,41);;/q;2*+1/p-2/b33-28+;;",-2.050671467,CC1=CC=CC=C1OC1=CC=CC=C1NN=C1C(=O)C2=C(NC(=O)C3=CC=CC=C3)C=C(C=C2C=C1S([O-])(=O)=O)S([O-])(=O)=O,0,G1,A,mono-constituent,Non Valid pH,Negative
A-2846,"InChI=1S/C7H15NO4S/c9-13(10,11)7-1-2-8-3-5-12-6-4-8/h1-7H2,(H,9,10,11)",0.455782507,[O-]S(=O)(=O)CCCN1CCOCC1,0,G1,A,None,None,Negative
A-2848,"InChI=1S/C52H38Cl2N18O26S8.8Na/c53-45-63-49(57-23-3-7-33(35(13-23)61-47(55)73)69-71-37-19-31-21(11-43(37)105(93,94)95)9-27(99(75,76)77)17-41(31)103(87,88)89)67-51(65-45)59-25-1-5-29(39(15-25)101(81,82)83)30-6-2-26(16-40(30)102(84,85)86)60-52-66-46(54)64-50(68-52)58-24-4-8-34(36(14-24)62-48(56)74)70-72-38-20-32-22(12-44(38)106(96,97)98)10-28(100(78,79)80)18-42(32)104(90,91)92;;;;;;;;/h1-20H,(H3,55,61,73)(H3,56,62,74)(H,75,76,77)(H,78,79,80)(H,81,82,83)(H,84,85,86)(H,87,88,89)(H,90,91,92)(H,93,94,95)(H,96,97,98)(H2,57,59,63,65,67)(H2,58,60,64,66,68);;;;;;;;/q;8*+1/p-8",-1.498168281,NC(=O)NC1=CC(NC2=NC(NC3=CC=C(C4=CC=C(NC5=NC(NC6=CC=C(N=NC7=CC8=C(C=C(C=C8C=C7S([O-])(=O)=O)S([O-])(=O)=O)S([O-])(=O)=O)C(NC(N)=O)=C6)=NC(Cl)=N5)C=C4S([O-])(=O)=O)C(=C3)S([O-])(=O)=O)=NC(Cl)=N2)=CC=C1N=NC1=CC2=C(C=C(C=C2C=C1S([O-])(=O)=O)S([O-])(=O)=O)S([O-])(=O)=O,0,G1,A,mono-constituent,Non Valid pH,Negative
A-2849,InChI=1S/ClH.Li/h1H;/q;+1/p-1,1.134397972,[Li+].[Cl-],0.079992054,G3,A,mono-constituent,None,Zwitterion
A-2850,"InChI=1S/C7H15NO/c9-6-4-7-3-1-2-5-8-7/h7-9H,1-6H2/p+1/t7-/m0/s1",0.642748355,OCCC1CCCC[NH2+]1,0,G1,A,None,None,Positive
A-2851,"InChI=1S/C4H11NO3.ClH/c5-4(1-6,2-7)3-8;/h6-8H,1-3,5H2;1H",0.551414915,[NH3+]C(CO)(CO)CO,0,G1,A,None,None,Positive
A-2852,"InChI=1S/C7H14O3/c1-5(2)4-10-7(9)6(3)8/h5-6,8H,4H2,1-3H3/t6-/m1/s1",-0.412857335,CC(C)COC(=O)C(C)O,0.036765034,G3,A,mono-constituent,None,Uncharged
A-2853,"InChI=1S/C2H4O2S.Ca/c3-2(4)1-5;/h5H,1H2,(H,3,4);/q;+2/p-1",-0.383898135,[O-]C(=O)CS,0,G1,A,None,None,Negative
A-2854,"InChI=1S/C10H21NO/c1-9(2)4-8(12)5-10(3,6-9)7-11/h8,12H,4-7,11H2,1-3H3",0.488999371,CC1(C)CC(O)CC(C)(C[NH3+])C1,0,G1,A,mono-constituent,Non Valid pH,Positive
A-2855,"InChI=1S/C4H8O3S.Na/c1-4(2)3-8(5,6)7;/h1,3H2,2H3,(H,5,6,7);/q;+1/p-1",0.519421508,CC(=C)CS([O-])(=O)=O,0,G1,A,mono-constituent,None,Negative
A-2856,"InChI=1S/2K.H2O8S2/c;;1-9(2,3)7-8-10(4,5)6/h;;(H,1,2,3)(H,4,5,6)/q2*+1;/p-2",-0.653730142,[O-]S(=O)(=O)OOS([O-])(=O)=O,0,G1,A,mono-constituent,None,Negative
A-2857,"InChI=1S/C9H13NO4S/c11-9(7-15(12,13)14)6-10-8-4-2-1-3-5-8/h1-5,9-11H,6-7H2,(H,12,13,14)/p-1/t9-/m0/s1",0.11878449,OC(CNC1=CC=CC=C1)CS([O-])(=O)=O,0,G1,A,None,None,Negative
A-2858,"InChI=1S/C23H26N3.H3O4P/c1-23(2)20-8-5-6-9-21(20)26(4)22(23)15-12-18-10-13-19(14-11-18)25(3)17-7-16-24;1-5(2,3)4/h5-6,8-15H,7,17H2,1-4H3;(H3,1,2,3,4)/q+1;/p-1",-0.93040182,OP([O-])([O-])=O.CN(CCC#N)C1=CC=C(C=CC2=[N+](C)C3=CC=CC=C3C2(C)C)C=C1,0,G1,A,None,Cosolvent Buffer,Zwitterion
A-2859,"InChI=1S/C15H28N2O3.Na/c1-2-3-4-5-6-7-14-16(9-8-15(19)20)10-11-17(14)12-13-18;/h10-11,14,18H,2-9,12-13H2,1H3,(H,19,20);/q;+1/p-1",0.212706758,CCCCCCCC1N(CCO)C=CN1CCC([O-])=O,0,G1,A,UVCB,Non Valid pH,Negative
A-2860,"InChI=1S/C10H16N2O8.4Na/c13-7(14)3-11(4-8(15)16)1-2-12(5-9(17)18)6-10(19)20;;;;/h1-6H2,(H,13,14)(H,15,16)(H,17,18)(H,19,20);;;;/q;4*+1/p-4",0.118989877,[O-]C(=O)CN(CCN(CC([O-])=O)CC([O-])=O)CC([O-])=O,0.032228995,G3,A,mono-constituent,None,Negative
A-2863,InChI=1S/Cr.3F,-0.338416648,[Cr],0.225994732,G5,A,None,None,Uncharged
A-2864,"InChI=1S/C7H10O3/c1-5(2)7(8)10-4-6-3-9-6/h6H,1,3-4H2,2H3",-0.45378908,CC(=C)C(=O)OCC1CO1,0,G1,A,mono-constituent,None,Uncharged
A-2865,"InChI=1S/C3H3N3O2/c7-6(8)3-1-2-4-5-3/h1-2H,(H,4,5)",-1.285472821,[O-][N+](=O)C1=NNC=C1,0,G1,A,mono-constituent,Non Valid pH,PureChargeSeparation
A-2868,"InChI=1S/2C16H16N4O5S.Co.Na/c2*1-10(21)15(16(23)18-11-5-3-2-4-6-11)20-19-13-9-12(26(17,24)25)7-8-14(13)22;;/h2*2-9H,1H3,(H5,17,18,19,20,21,22,23,24,25);;/q;;+3;+1/p-4",-2.208470112,CC(=O)C(=N[N-]C1=CC(=CC=C1O)S(N)(=O)=O)C(=O)NC1=CC=CC=C1,0,G1,A,None,None,Negative
A-2869,"InChI=1S/C9H20O3/c1-2-3-4-5-6-12-9(7-10)8-11/h9-11H,2-8H2,1H3",-1.055812212,CCCCCCOC(CO)CO,0,G1,A,None,None,Uncharged
A-2870,"InChI=1S/C7H16N.BrH/c1-3-8(2)6-4-5-7-8;/h3-7H2,1-2H3;1H/q+1;/p-1",1.410187143,CC[N+]1(C)CCCC1,0,G1,A,mono-constituent,None,Positive
A-2871,"InChI=1S/C7H6O2.K/c8-7(9)6-4-2-1-3-5-6;/h1-5H,(H,8,9);/q;+1/p-1",0.48726735,[O-]C(=O)C1=CC=CC=C1,0,G1,A,mono-constituent,Non Valid pH,Negative
A-2872,"InChI=1S/C13H12N2O.ClH/c14-13(16)12-7-4-8-15(10-12)9-11-5-2-1-3-6-11;/h1-8,10H,9H2,(H-,14,16);1H",0.293610373,NC(=O)C1=CC=C[N+](CC2=CC=CC=C2)=C1,0,G1,A,mono-constituent,None,Positive
A-2873,"InChI=1S/C18H24O/c1-5-18(4,13-6-7-15(2)3)14-12-16-8-10-17(19)11-9-16/h5,7-12,14,19H,1,6,13H2,2-4H3/b14-12+/t18-/m1/s1",-6.337017381,CC(C)=CCCC(C)(C=C)C=CC1=CC=C(O)C=C1,0,G1,A,mono-constituent,Non Valid pH,Uncharged
A-2874,InChI=1S/BHO3.Na.H2O/c2-1-4-3;;/h3H;;1H2/q;+1;/p-1,-0.823100201,OOB=O,0,G1,A,None,None,Uncharged
A-2875,"InChI=1S/C8H16O3/c1-7(9)11-6-5-8(2,3)10-4/h5-6H2,1-4H3",-0.439029198,COC(C)(C)CCOC(C)=O,0,G1,A,mono-constituent,None,Uncharged
A-2876,"InChI=1S/Cr.H3O4P/c;1-5(2,3)4/h;(H3,1,2,3,4)/q+3;/p-3",0.48599564,OP([O-])([O-])=O,0,G1,A,None,None,Negative
A-2879,"InChI=1S/C16H12N2O9S2.C6H5N3O5.C6H6N2O2.Fe.2Na/c19-9-1-2-12(14(20)5-9)17-18-13-6-10(28(22,23)24)3-8-4-11(29(25,26)27)7-15(21)16(8)13;7-4-1-3(8(11)12)2-5(6(4)10)9(13)14;7-5-1-3-6(4-2-5)8(9)10;;;/h1-7,18,20-21H,(H,22,23,24)(H,25,26,27);1-2,10H,7H2;1-4H,7H2;;;/q;;;;2*+1/p-2/b17-12+;;;;;",-1.307546525,[Na+].[Na+].[Fe].NC1=CC=C(C=C1)[N+]([O-])=O.NC1=CC(=CC(=C1[O-])[N+]([O-])=O)[N+]([O-])=O.OC1=C2C(NN=C3C=CC(=O)C=C3[O-])=CC(=CC2=CC(=C1)S([O-])(=O)=O)S([O-])(=O)=O,0.112511025,G5,A,UVCB,Multi-constituent Substances,Zwitterion
A-2880,"InChI=1S/C52H34Cl2N14O26S8.8Na/c53-47-59-49(63-51(61-47)57-41-37(99(83,84)85)17-21-15-25(95(71,72)73)19-33(39(21)43(41)69)67-65-31-13-11-27-29(45(31)101(89,90)91)3-1-5-35(27)97(77,78)79)55-23-7-9-24(10-8-23)56-50-60-48(54)62-52(64-50)58-42-38(100(86,87)88)18-22-16-26(96(74,75)76)20-34(40(22)44(42)70)68-66-32-14-12-28-30(46(32)102(92,93)94)4-2-6-36(28)98(80,81)82;;;;;;;;/h1-20,69-70H,(H,71,72,73)(H,74,75,76)(H,77,78,79)(H,80,81,82)(H,83,84,85)(H,86,87,88)(H,89,90,91)(H,92,93,94)(H2,55,57,59,61,63)(H2,56,58,60,62,64);;;;;;;;/q;8*+1/p-8",-0.634868411,OC1=C(NC2=NC(Cl)=NC(NC3=CC=C(NC4=NC(Cl)=NC(NC5=C([O-])C6=C(C=C(C=C6C=C5S([O-])(=O)=O)S([O-])(=O)=O)N=NC5=C(C6=CC=CC(=C6C=C5)S([O-])(=O)=O)S([O-])(=O)=O)=N4)C=C3)=N2)C(=CC2=CC(=CC(N=NC3=C(C4=CC=CC(=C4C=C3)S([O-])(=O)=O)S([O-])(=O)=O)=C12)S([O-])(=O)=O)S([O-])(=O)=O,0,G1,A,mono-constituent,None,Negative
A-2881,"InChI=1S/C23H42N.ClH/c1-4-5-6-7-8-9-10-11-12-13-14-18-21-24(2,3)22-23-19-16-15-17-20-23;/h15-17,19-20H,4-14,18,21-22H2,1-3H3;1H/q+1;/p-1",-0.953121785,CCCCCCCCCCCCCC[N+](C)(C)CC1=CC=CC=C1,1.074768405,G4,A,UVCB,None,Positive
A-2882,InChI=1S/2FH.Ni/h2*1H;/q;;+2/p-2,-0.383317077,[F-].[F-].[Ni++],0,G1,A,None,None,Negative
A-2885,"InChI=1S/C4H6N4O3/c5-3(10)6-1-2(9)8-4(11)7-1/h1H,(H3,5,6,10)(H2,7,8,9,11)",-1.508782486,NC(=O)NC1=NC(=O)NC1O,0.05186884,G5,A,mono-constituent,None,Uncharged
A-2887,"InChI=1S/C29H21N5O8S2.2Na/c35-28-25-15-12-23(30-29(36)18-4-2-1-3-5-18)16-19(25)17-26(44(40,41)42)27(28)34-33-21-8-6-20(7-9-21)31-32-22-10-13-24(14-11-22)43(37,38)39;;/h1-17,33H,(H,30,36)(H,37,38,39)(H,40,41,42);;/q;2*+1/p-2/b32-31?,34-27-;;",-2.156676448,[O-]S(=O)(=O)C1=CC=C(C=C1)N=NC1=CC=C(NN=C2C(=O)C3=CC=C(NC(=O)C4=CC=CC=C4)C=C3C=C2S([O-])(=O)=O)C=C1,0,G1,A,mono-constituent,None,Negative
A-2888,"InChI=1S/C22H17N3O6S2.Na/c23-17-11-10-14-12-16(33(29,30)31)13-19(26)21(14)22(17)25-24-18-8-4-5-9-20(18)32(27,28)15-6-2-1-3-7-15;/h1-13,23-25H,(H,29,30,31);/q;+1/p-1",-2.088831676,NC1=CC=C2C=C(C=C([O-])C2=C1N=NC1=CC=CC=C1S(=O)(=O)C1=CC=CC=C1)S([O-])(=O)=O,0,G1,A,mono-constituent,None,Negative
A-2889,"InChI=1S/2C4H12O4P.H2O4S/c2*5-1-9(2-6,3-7)4-8;1-5(2,3)4/h2*5-8H,1-4H2;(H2,1,2,3,4)/q2*+1;/p-2",1.9675127,[O-]S([O-])(=O)=O.OC[P+](CO)(CO)CO.OC[P+](CO)(CO)CO,0,G1,A,mono-constituent,Cosolvent Buffer,Zwitterion
A-2891,InChI=1S/C3H4O2/c4-3-1-2-5-3/h1-2H2,0.710489386,O=C1CCO1,0,G1,A,mono-constituent,None,Uncharged
A-2892,"InChI=1S/C6H12OS2.K/c1-5(2)3-4-7-6(8)9;/h5H,3-4H2,1-2H3,(H,8,9);/q;+1/p-1",0.237889723,CC(C)CCOC([S-])=S,0,G1,A,mono-constituent,None,Negative
A-2893,"InChI=1S/C14H20N2O/c1-2-14(17)16(12-6-4-3-5-7-12)13-8-10-15-11-9-13/h3-7,13,15H,2,8-11H2,1H3/p+1",-0.835225508,CCC(=O)N(C1CC[NH2+]CC1)C1=CC=CC=C1,0,G1,A,None,None,Positive
A-2894,"InChI=1S/C6H13NO4S.Na/c8-12(9,10)6-3-7-1-4-11-5-2-7;/h1-6H2,(H,8,9,10);/q;+1/p-1",0.188529745,[O-]S(=O)(=O)CCN1CCOCC1,0,G1,A,mono-constituent,Non Valid pH,Negative
A-2895,"InChI=1S/C11H22O4/c1-2-3-4-5-6-7-11(14)15-9-10(13)8-12/h10,12-13H,2-9H2,1H3",0.179474131,CCCCCCCC(=O)OCC(O)CO,0,G1,A,None,None,Uncharged
A-2896,"InChI=1S/2C16H14N4O8S.Co.3Na/c2*1-9(21)14(16(23)17-10-5-3-2-4-6-10)19-18-12-7-11(20(24)25)8-13(15(12)22)29(26,27)28;;;;/h2*2-8H,1H3,(H4,17,18,19,21,22,23,26,27,28);;;;/q;;+3;3*+1/p-6",-0.474704027,CC(=O)C(=N[N-]C1=CC(=CC(=C1O)S([O-])(=O)=O)[N+]([O-])=O)C(=O)NC1=CC=CC=C1,0,G1,A,None,None,Negative
A-2897,"InChI=1S/C22H16N6O9S2.2Na/c23-19-18-12(11-17(39(35,36)37)21(22(18)29)27-24-13-4-2-1-3-5-13)10-16(38(32,33)34)20(19)26-25-14-6-8-15(9-7-14)28(30)31;;/h1-11,24H,23H2,(H,32,33,34)(H,35,36,37);;/q;2*+1/p-2/b26-25?,27-21+;;",-1.2800595,NC1=C(N=NC2=CC=C(C=C2)[N+]([O-])=O)C(=CC2=C1C(=O)C(=NNC1=CC=CC=C1)C(=C2)S([O-])(=O)=O)S([O-])(=O)=O,0,G1,A,None,None,Negative
A-2898,"InChI=1S/C7H6O2.Li/c8-7(9)6-4-2-1-3-5-6;/h1-5H,(H,8,9);/q;+1/p-1",0.390910622,[O-]C(=O)C1=CC=CC=C1,0,G1,A,None,None,Negative
A-2901,"InChI=1S/C16H32N4O2/c1-15(2)8-12(18-14(22)20(6)7)9-16(3,10-15)11-17-13(21)19(4)5/h12H,8-11H2,1-7H3,(H,17,21)(H,18,22)/t12-,16+/m1/s1",-1.893818753,CN(C)C(=O)NCC1(C)CC(CC(C)(C)C1)NC(=O)N(C)C,0,G1,A,None,None,Uncharged
A-2902,"InChI=1S/C26H19N5O8S2.2Na/c27-16-6-8-19-14(10-16)12-21(40(34,35)36)24(25(19)32)31-29-18-7-9-20-15(11-18)13-22(41(37,38)39)23(26(20)33)30-28-17-4-2-1-3-5-17;;/h1-13,28-29H,27H2,(H,34,35,36)(H,37,38,39);;/q;2*+1/p-2/b30-23-,31-24+;;",-2.210130555,NC1=CC=C2C(=O)C(=NNC3=CC=C4C(=O)C(=NNC5=CC=CC=C5)C(=CC4=C3)S([O-])(=O)=O)C(=CC2=C1)S([O-])(=O)=O,0,G1,A,None,None,Negative
A-2904,"InChI=1S/C6H10N2O5/c7-4(9)1-8(2-5(10)11)3-6(12)13/h1-3H2,(H2,7,9)(H,10,11)(H,12,13)/p-1",-1.763581857,NC(=O)CN(CC([O-])=O)CC([O-])=O,0.045806837,G3,A,None,None,Negative
A-2906,InChI=1S/CH2N2.Ca/c2-1-3;/h2H2;/q;+2,-0.446096322,NC#N,0,G1,A,None,None,Uncharged
A-2907,"InChI=1S/C6H10O4S/c7-5(8)1-3-11-4-2-6(9)10/h1-4H2,(H,7,8)(H,9,10)",-0.799143198,[O-]C(=O)CCSCCC([O-])=O,0.059221599,G3,A,None,Non Valid pH,Negative
A-2908,"InChI=1S/C4H14N3PS/c1-2-3-4-7-8(5,6)9/h2-4H2,1H3,(H5,5,6,7,9)",-0.773033917,CCCCNP(N)(N)=S,0.434825108,G5,A,None,None,Uncharged
A-2910,"InChI=1S/C26H20ClN7O10S3.3Na/c1-13-6-2-3-7-16(13)28-25-30-24(27)31-26(32-25)29-18-12-15(45(36,37)38)10-14-11-20(47(42,43)44)22(23(35)21(14)18)34-33-17-8-4-5-9-19(17)46(39,40)41;;;/h2-12,33H,1H3,(H,36,37,38)(H,39,40,41)(H,42,43,44)(H2,28,29,30,31,32);;;/q;3*+1/p-3/b34-22-;;;",-0.457240368,CC1=CC=CC=C1NC1=NC(Cl)=NC(NC2=CC(=CC3=C2C(=O)C(=NNC2=CC=CC=C2S([O-])(=O)=O)C(=C3)S([O-])(=O)=O)S([O-])(=O)=O)=N1,0,G1,A,None,None,Negative
A-2911,InChI=1S/ClH.H4N2/c;1-2/h1H;1-2H2,1.595628815,N[NH3+],0,G1,A,None,None,Positive
A-2912,"InChI=1S/C16H12N2O4S.Na/c19-15-10-5-11-3-1-2-4-14(11)16(15)18-17-12-6-8-13(9-7-12)23(20,21)22;/h1-10,19H,(H,20,21,22);/q;+1/p-1",-1.115857896,[O-]S(=O)(=O)C1=CC=C(NN=C2C(=O)C=CC3=CC=CC=C23)C=C1,0,G1,A,None,None,Negative
A-2913,"InChI=1S/C32H22N4O16S4.2Cu.4Na/c37-25-11-15(1-7-23(25)33-35-29-21-5-3-19(53(41,42)43)9-17(21)13-27(31(29)39)55(47,48)49)16-2-8-24(26(38)12-16)34-36-30-22-6-4-20(54(44,45)46)10-18(22)14-28(32(30)40)56(50,51)52;;;;;;/h1-14,37-40H,(H,41,42,43)(H,44,45,46)(H,47,48,49)(H,50,51,52);;;;;;/q;2*+2;4*+1/p-8",-1.607428748,OC1=CC(=CC=C1N=NC1=C(O)C(=CC2=CC(=CC=C12)S([O-])(=O)=O)S([O-])(=O)=O)C1=CC=C(N=NC2=C([O-])C(=CC3=CC(=CC=C23)S([O-])(=O)=O)S([O-])(=O)=O)C(O)=C1,0,G1,A,None,None,Negative
A-2915,"InChI=1S/C17H27N6S.CH4O4S/c1-12(2)23(13(3)4)17-20-22(7)16(24-17)19-18-14-8-10-15(11-9-14)21(5)6;1-5-6(2,3)4/h8-13H,1-7H3;1H3,(H,2,3,4)/q+1;/p-1",-1.259698438,COS([O-])(=O)=O.CC(C)N(C(C)C)C1=N[N+](C)=C(S1)N=NC1=CC=C(C=C1)N(C)C,0,G1,A,None,Cosolvent Buffer,Zwitterion
A-2916,"InChI=1S/C36H25N5O6S2.2Na/c42-48(43,44)34-17-7-13-26-27(34)14-6-16-29(26)38-39-30-19-20-31(25-12-5-4-11-24(25)30)40-41-32-21-22-33(37-23-9-2-1-3-10-23)36-28(32)15-8-18-35(36)49(45,46)47;;/h1-22,37H,(H,42,43,44)(H,45,46,47);;/q;2*+1/p-2",-1.463118539,[O-]S(=O)(=O)C1=CC=CC2=C(C=CC=C12)N=NC1=CC=C(N=NC2=CC=C(NC3=CC=CC=C3)C3=C(C=CC=C23)S([O-])(=O)=O)C2=CC=CC=C12,0,G1,A,None,None,Negative
A-2917,"InChI=1S/C16H13Cl2N5O3S.Li/c1-9-15(16(19)23(22-9)10-5-3-2-4-6-10)21-20-13-7-12(18)14(8-11(13)17)27(24,25)26;/h2-8,19-20H,1H3,(H,24,25,26);/q;+1/p-1/b19-16?,21-15+;",-1.237068525,CC1=NN(C(=N)C1=NNC1=CC(Cl)=C(C=C1Cl)S([O-])(=O)=O)C1=CC=CC=C1,0,G1,A,None,Non Valid pH,Negative
A-2918,"InChI=1S/C10H20O2/c1-8(2)6-9-7-10(3,11)4-5-12-9/h8-9,11H,4-7H2,1-3H3",2.13768162,CC(C)CC1CC(C)(O)CCO1,0,G1,A,None,None,Uncharged
A-2920,"InChI=1S/C35H26N6O11S3.2Na/c1-22-2-13-28(14-3-22)55(50,51)52-27-11-8-25(9-12-27)38-40-33-19-18-32(30-16-15-29(21-31(30)33)53(44,45)46)39-37-24-6-4-23(5-7-24)36-34-17-10-26(41(42)43)20-35(34)54(47,48)49;;/h2-21,36H,1H3,(H,44,45,46)(H,47,48,49);;/q;2*+1/p-2",-1.570984747,CC1=CC=C(C=C1)S(=O)(=O)OC1=CC=C(C=C1)N=NC1=CC=C(N=NC2=CC=C(NC3=CC=C(C=C3S([O-])(=O)=O)[N+]([O-])=O)C=C2)C2=CC=C(C=C12)S([O-])(=O)=O,0,G1,A,None,None,Negative
A-2921,"InChI=1S/C9H14N2/c1-5-4-6(2)9(11)7(3)8(5)10/h4H,10-11H2,1-3H3",-0.820716356,CC1=CC(C)=C(N)C(C)=C1N,0,G1,A,None,Non Valid pH,Uncharged
A-2922,"InChI=1S/C34H29N13O7S2.2Na/c35-18-1-11-26(24(37)15-18)44-40-20-3-7-22(8-4-20)42-46-32-28(55(49,50)51)13-17-14-29(56(52,53)54)33(34(48)30(17)31(32)39)47-43-23-9-5-21(6-10-23)41-45-27-12-2-19(36)16-25(27)38;;/h1-16,43H,35-39H2,(H,49,50,51)(H,52,53,54);;/q;2*+1/p-2/b44-40?,45-41?,46-42?,47-33-;;",-1.568718144,NC1=CC=C(N=NC2=CC=C(NN=C3C(=O)C4=C(N)C(N=NC5=CC=C(C=C5)N=NC5=CC=C(N)C=C5N)=C(C=C4C=C3S([O-])(=O)=O)S([O-])(=O)=O)C=C2)C(N)=C1,0,G1,A,None,None,Negative
A-2924,"InChI=1S/C9H16NO2/c1-8(2)5-7(11)6-9(3,4)10(8)12/h5-6H2,1-4H3",0.10341255,CC1(C)CC(=O)CC(C)(C)N1[O],0,G1,A,None,None,Uncharged
A-2925,"InChI=1S/C34H28N10O9S3.2Na/c35-20-6-15-27(26(36)18-20)41-38-23-11-13-25(14-12-23)54(46,47)44-24-9-7-22(8-10-24)40-42-32-28(55(48,49)50)16-19-17-29(56(51,52)53)33(34(45)30(19)31(32)37)43-39-21-4-2-1-3-5-21;;/h1-18,44-45H,35-37H2,(H,48,49,50)(H,51,52,53);;/q;2*+1/p-2",-0.602981194,NC1=CC=C(N=NC2=CC=C(C=C2)S(=O)(=O)NC2=CC=C(C=C2)N=NC2=C(N)C3=C(C=C(C(=NNC4=CC=CC=C4)C3=O)S([O-])(=O)=O)C=C2S([O-])(=O)=O)C(N)=C1,0,G1,A,None,Non Valid pH,Negative
A-2927,"InChI=1S/C7H8O/c1-6-2-4-7(8)5-3-6/h2-5,8H,1H3",-0.701547905,CC1=CC=C(O)C=C1,0.029597059,G5,A,None,None,Uncharged
A-2928,"InChI=1S/C20H20N2O5S.Na/c21-18-15(28(25,26)27)10-14(22-11-6-2-1-3-7-11)16-17(18)20(24)13-9-5-4-8-12(13)19(16)23;/h4-5,8-11,22H,1-3,6-7,21H2,(H,25,26,27);/q;+1/p-1",-1.296365099,NC1=C(C=C(NC2CCCCC2)C2=C1C(=O)C1=CC=CC=C1C2=O)S([O-])(=O)=O,0,G1,A,None,None,Negative
A-2930,"InChI=1S/C9H14N3O8P/c10-5-1-2-12(9(15)11-5)8-7(14)6(13)4(20-8)3-19-21(16,17)18/h1-2,4,6-8,13-14H,3H2,(H2,10,11,15)(H2,16,17,18)",-1.198775352,NC1=NC(=O)N(C=C1)C1OC(COP([O-])([O-])=O)C(O)C1O,0,G1,A,None,None,Negative
A-2932,"InChI=1S/C18H14N4O7S.Na/c23-21(24)14-7-9-15(17(11-14)22(25)26)20-13-6-8-16(18(10-13)30(27,28)29)19-12-4-2-1-3-5-12;/h1-11,19-20H,(H,27,28,29);/q;+1/p-1",-2.199137363,[O-][N+](=O)C1=CC=C(NC2=CC=C(NC3=CC=CC=C3)C(=C2)S([O-])(=O)=O)C(=C1)[N+]([O-])=O,0,G1,A,None,None,Negative
A-2933,"InChI=1S/C8H9NO2/c1-11-8(10)6-4-2-3-5-7(6)9/h2-5H,9H2,1H3",-1.733847045,COC(=O)C1=CC=CC=C1N,0,G1,A,None,None,Uncharged
A-2934,"InChI=1S/C20H14N2O5S.Na/c21-18-15(28(25,26)27)10-14(22-11-6-2-1-3-7-11)16-17(18)20(24)13-9-5-4-8-12(13)19(16)23;/h1-10,22H,21H2,(H,25,26,27);/q;+1/p-1",-2.173896088,NC1=C2C(=O)C3=CC=CC=C3C(=O)C2=C(NC2=CC=CC=C2)C=C1S([O-])(=O)=O,0,G1,A,None,None,Negative
A-2935,"InChI=1S/C22H15Cl3N4O5S.Na/c1-12-21(22(30)29(28-12)18-11-14(35(31,32)33)7-8-15(18)24)27-26-17-10-13(23)6-9-20(17)34-19-5-3-2-4-16(19)25;/h2-11,21H,1H3,(H,31,32,33);/q;+1/p-1",-2.316221585,CC1=NN(C(=O)C1N=NC1=CC(Cl)=CC=C1OC1=CC=CC=C1Cl)C1=CC(=CC=C1Cl)S([O-])(=O)=O,0,G1,A,None,None,Negative
A-2937,"InChI=1S/C6H13NOS/c1-4-7-6(9)8-5(2)3/h5H,4H2,1-3H3,(H,7,9)",-1.744788784,CCNC(=S)OC(C)C,0.024022919,G3,A,None,None,Uncharged
A-2940,"InChI=1S/C9H10O4/c1-2-13-9(12)6-3-4-7(10)8(11)5-6/h3-5,10-11H,2H2,1H3",-1.855655062,CCOC(=O)C1=CC=C(O)C(O)=C1,0,G1,A,None,None,Uncharged
A-2942,"InChI=1S/C9H6O6/c10-7(11)4-1-5(8(12)13)3-6(2-4)9(14)15/h1-3H,(H,10,11)(H,12,13)(H,14,15)",-1.942299553,[O-]C(=O)C1=CC(=CC(=C1)C([O-])=O)C([O-])=O,0.519849776,G2,A,None,Non Valid pH,Negative
A-2943,"InChI=1S/C11H13NO2/c1-13-10-6-5-9(4-3-7-12)8-11(10)14-2/h5-6,8H,3-4H2,1-2H3",-1.901344783,COC1=CC=C(CCC#N)C=C1OC,0,G1,A,None,Non Valid pH,Uncharged
A-2944,"InChI=1S/C24H21Cl2N5O6S2.Na/c1-15-23(24(32)31(30-15)21-13-20(26)22(14-19(21)25)39(35,36)37)29-28-17-8-5-9-18(12-17)38(33,34)27-11-10-16-6-3-2-4-7-16;/h2-9,12-14,23,27H,10-11H2,1H3,(H,35,36,37);/q;+1/p-1",-2.429980995,CC1=NN(C(=O)C1N=NC1=CC=CC(=C1)S(=O)(=O)NCCC1=CC=CC=C1)C1=CC(Cl)=C(C=C1Cl)S([O-])(=O)=O,0,G1,A,None,None,Negative
A-2945,"InChI=1S/C37H31N3O11S3.2Na/c1-22-12-15-27(16-13-22)52(42,43)40-30-21-28(53(44,45)46)18-25-19-34(54(47,48)49)36(37(41)35(25)30)39-38-29-17-14-26(50-31-10-6-4-8-23(31)2)20-33(29)51-32-11-7-5-9-24(32)3;;/h4-21,38,40H,1-3H3,(H,44,45,46)(H,47,48,49);;/q;2*+1/p-2/b39-36+;;",-2.566969077,CC1=CC=C(C=C1)S(=O)(=O)NC1=CC(=CC2=C1C(=O)C(=NNC1=CC=C(OC3=CC=CC=C3C)C=C1OC1=CC=CC=C1C)C(=C2)S([O-])(=O)=O)S([O-])(=O)=O,0,G1,A,None,Non Valid pH,Negative
A-2946,"InChI=1S/C37H32N6O17S4.4Na/c1-17-5-27(33(59-3)15-25(17)40-42-29-11-21(61(47,48)49)7-19-9-23(63(53,54)55)13-31(44)35(19)29)38-37(46)39-28-6-18(2)26(16-34(28)60-4)41-43-30-12-22(62(50,51)52)8-20-10-24(64(56,57)58)14-32(45)36(20)30;;;;/h5-16,44-45H,1-4H3,(H2,38,39,46)(H,47,48,49)(H,50,51,52)(H,53,54,55)(H,56,57,58);;;;/q;4*+1/p-4",-2.690313687,COC1=CC(N=NC2=CC(=CC3=CC(=CC([O-])=C23)S([O-])(=O)=O)S([O-])(=O)=O)=C(C)C=C1NC(=O)NC1=CC(C)=C(C=C1OC)N=NC1=CC(=CC2=CC(=CC([O-])=C12)S([O-])(=O)=O)S([O-])(=O)=O,0,G1,A,None,None,Negative
A-2947,"InChI=1S/C7H9NO2/c9-6-4-2-1-3-5(4)7(10)8-6/h4-5H,1-3H2,(H,8,9,10)",0.155357382,O=C1NC(=O)C2CCCC12,0,G1,A,None,None,Uncharged
A-2948,"InChI=1S/C8H17NO3S.Na/c10-13(11,12)7-6-9-8-4-2-1-3-5-8;/h8-9H,1-7H2,(H,10,11,12);/q;+1/p-1",-0.078418557,[O-]S(=O)(=O)CC[NH2+]C1CCCCC1,0,G1,A,None,None,Zwitterion
A-2949,"InChI=1S/2Na.H2O4S/c;;1-5(2,3)4/h;;(H2,1,2,3,4)/q2*+1;/p-2",0.126333765,[O-]S([O-])(=O)=O,0.192866346,G5,A,None,None,Negative
A-2950,"InChI=1S/C18H26O2/c1-18-9-8-14-13-5-3-12(19)10-11(13)2-4-15(14)16(18)6-7-17(18)20/h14-17,20H,2-10H2,1H3/t14-,15-,16+,17+,18+/m1/s1",-4.947028744,CC12CCC3C(CCC4=C3CCC(=O)C4)C1CCC2O,0,G1,A,None,None,Uncharged
A-2951,"InChI=1S/C5H10Br2O2/c6-1-5(2-7,3-8)4-9/h8-9H,1-4H2",-1.130401751,OCC(CO)(CBr)CBr,0.146000876,G3,A,None,None,Uncharged