ID,InChI,Solubility,SMILEScurated,SD,Group,Dataset,Composition,Error,Charge
B-315,"InChI=1S/C13H15N3O2/c1-10-9-12(18-13(17)15(2)3)16(14-10)11-7-5-4-6-8-11/h4-9H,1-3H3",-2.0886,CN(C)C(=O)OC1=CC(C)=NN1C1=CC=CC=C1,0,G1,B,None,None,Uncharged
B-317,"InChI=1S/C7H7ClO/c1-5-3-2-4-6(8)7(5)9/h2-4,9H,1H3",-0.7739,CC1=CC=CC(Cl)=C1O,0,G1,B,None,None,Uncharged
B-318,"InChI=1S/C6H6O3/c7-4-2-1-3-5(8)6(4)9/h1-3,7-9H",0.6043,OC1=CC=CC(O)=C1O,0.04785,G3,B,None,None,Uncharged
B-320,InChI=1S/C6Br6/c7-1-2(8)4(10)6(12)5(11)3(1)9,-9.5374,BrC1=C(Br)C(Br)=C(Br)C(Br)=C1Br,0.1013,G3,B,None,None,Uncharged
B-321,InChI=1S/C3Cl3N3O3/c4-7-1(10)8(5)3(12)9(6)2(7)11,-1.2871,ClN1C(=O)N(Cl)C(=O)N(Cl)C1=O,0,G1,B,None,None,Uncharged
B-324,"InChI=1S/C6H3Cl3O/c7-3-1-4(8)6(10)5(9)2-3/h1-2,10H",-2.3924,[O-]C1=C(Cl)C=C(Cl)C=C1Cl,0.0262,G3,B,None,None,Negative
B-325,"InChI=1S/C6H6OS/c1-5(7)6-3-2-4-8-6/h2-4H,1H3",-0.9549,CC(=O)C1=CC=CS1,0,G1,B,None,None,Uncharged
B-327,"InChI=1S/C7H4F3NO3/c8-7(9,10)5-3-4(12)1-2-6(5)11(13)14/h1-3,12H",-1.6172,[O-]C1=CC=C(C(=C1)C(F)(F)F)[N+]([O-])=O,0,G1,B,None,None,Negative
B-329,"InChI=1S/C10H12N2O5/c1-3-6(2)8-4-7(11(14)15)5-9(10(8)13)12(16)17/h4-6,13H,3H2,1-2H3",-3.6646,CCC(C)C1=CC(=CC(=C1[O-])[N+]([O-])=O)[N+]([O-])=O,0.257398587,G5,B,None,None,Negative
B-331,"InChI=1S/C8H8N2O2/c9-7(11)5-3-1-2-4-6(5)8(10)12/h1-4H,(H2,9,11)(H2,10,12)",-2.4371,NC(=O)C1=CC=CC=C1C(N)=O,0.24145,G3,B,None,None,Uncharged
B-334,"InChI=1S/C9H8O4/c10-8(11)5-6-3-1-2-4-7(6)9(12)13/h1-4H,5H2,(H,10,11)(H,12,13)",-1.0515,[O-]C(=O)CC1=CC=CC=C1C([O-])=O,0,G1,B,None,None,Negative
B-335,"InChI=1S/C6H5ClN2O2/c7-4-1-2-5(8)6(3-4)9(10)11/h1-3H,8H2",-2.538,NC1=CC=C(Cl)C=C1[N+]([O-])=O,0.358348291,G3,B,None,None,PureChargeSeparation
B-336,"InChI=1S/C6H4ClNO3/c7-4-1-2-6(9)5(3-4)8(10)11/h1-3,9H",-3.0902,[O-]C1=CC=C(Cl)C=C1[N+]([O-])=O,0,G1,B,None,None,Negative
B-337,"InChI=1S/C7H12O7/c8-1-2(9)3(10)6-4(11)5(12)7(13)14-6/h2-6,8-12H,1H2",0.3348,OCC(O)C(O)C1OC(=O)C(O)C1O,0.0276,G3,B,None,None,Uncharged
B-338,"InChI=1S/C10H13ClO/c1-6(2)8-5-9(11)7(3)4-10(8)12/h4-6,12H,1-3H3",-2.2664,CC(C)C1=CC(Cl)=C(C)C=C1O,0,G1,B,None,None,Uncharged
B-343,InChI=1S/C10H7Br/c11-10-7-3-5-8-4-1-2-6-9(8)10/h1-7H,-4.3468,BrC1=CC=CC2=CC=CC=C12,0,G1,B,None,None,Uncharged
B-344,"InChI=1S/C15H26N2/c1-3-7-16-11-13-9-12(14(16)5-1)10-17-8-4-2-6-15(13)17/h12-15H,1-11H2/t12-,13-,14-,15+/m0/s1",-1.8871,C1CC[NH+]2CC3CC(C[NH+]4CCCCC34)C2C1,0,G1,B,None,None,Positive
B-345,"InChI=1S/C8H10O4/c1-5(2)8(11)6(12-3)4-7(9)10/h4H,1H2,2-3H3,(H,9,10)",-0.9299,COC(=CC([O-])=O)C(=O)C(C)=C,0,G1,B,None,None,Negative
B-346,"InChI=1S/C6H10O6/c7-1-2-3(8)4(9)5(10)6(11)12-2/h2-5,7-10H,1H2",0.5201,OCC1OC(=O)C(O)C(O)C1O,0,G1,B,None,None,Uncharged
B-347,"InChI=1S/C17H20N2O/c1-18(2)15-9-5-13(6-10-15)17(20)14-7-11-16(12-8-14)19(3)4/h5-12H,1-4H3",-2.8267,CN(C)C1=CC=C(C=C1)C(=O)C1=CC=C(C=C1)N(C)C,0,G1,B,None,None,Uncharged
B-350,InChI=1S/C8H6N2/c1-2-4-8-7(3-1)9-5-6-10-8/h1-6H,0.7051,C1=CC2=NC=CN=C2C=C1,0,G1,B,None,None,Uncharged
B-351,"InChI=1S/C10H9N/c11-10-6-5-8-3-1-2-4-9(8)7-10/h1-7H,11H2",-2.8795,NC1=CC2=CC=CC=C2C=C1,0,G1,B,None,None,Uncharged
B-353,"InChI=1S/C14H19N3S/c1-16(2)9-10-17(12-13-6-5-11-18-13)14-7-3-4-8-15-14/h3-8,11H,9-10,12H2,1-2H3",-2.6383,C[NH+](C)CCN(CC1=CC=CS1)C1=CC=CC=N1,0,G1,B,None,None,Positive
B-354,"InChI=1S/C12H10O2/c13-11-7-6-10(8-12(11)14)9-4-2-1-3-5-9/h1-8,13-14H",-2.0659,OC1=CC=C(C=C1O)C1=CC=CC=C1,0,G1,B,None,None,Uncharged
B-355,InChI=1S/C18H14/c1-3-8-15(9-4-1)17-12-7-13-18(14-17)16-10-5-2-6-11-16/h1-14H,-5.183,C1=CC=C(C=C1)C1=CC(=CC=C1)C1=CC=CC=C1,0,G1,B,None,None,Uncharged
B-356,"InChI=1S/C15H16N3S.ClH/c1-9-6-13-15(8-11(9)16)19-14-7-10(18(2)3)4-5-12(14)17-13;/h4-8H,16H2,1-3H3;1H/q+1;/p-1",-0.9034,CN(C)C1=CC=C2N=C3C=C(C)C(N)=CC3=[S+]C2=C1,0,G1,B,None,None,Positive
B-357,"InChI=1S/C10H8O2/c11-9-5-7-3-1-2-4-8(7)6-10(9)12/h1-6,11-12H",-2.7377,OC1=CC2=CC=CC=C2C=C1O,0,G1,B,None,None,Uncharged
B-358,"InChI=1S/C10H15NO/c1-2-11(8-9-12)10-6-4-3-5-7-10/h3-7,12H,2,8-9H2,1H3",-1.9171,CCN(CCO)C1=CC=CC=C1,0,G1,B,None,None,Uncharged
B-359,"InChI=1S/C13H11N3/c14-10-3-1-8-5-9-2-4-11(15)7-13(9)16-12(8)6-10/h1-7H,14-15H2",0.3783,NC1=CC2=[NH+]C3=CC(N)=CC=C3C=C2C=C1,0,G1,B,None,None,Positive
B-360,"InChI=1S/C14H12O/c1-11(15)12-7-9-14(10-8-12)13-5-3-2-4-6-13/h2-10H,1H3",-3.3104,CC(=O)C1=CC=C(C=C1)C1=CC=CC=C1,0,G1,B,None,None,Uncharged
B-361,InChI=1S/C12H9NO2/c14-13(15)12-8-6-11(7-9-12)10-4-2-1-3-5-10/h1-9H,-5.2094,[O-][N+](=O)C1=CC=C(C=C1)C1=CC=CC=C1,0,G1,B,None,None,PureChargeSeparation
B-362,"InChI=1S/C9H10O3/c1-11-8-3-4-9(12-2)7(5-8)6-10/h3-6H,1-2H3",-2.3202,COC1=CC=C(OC)C(C=O)=C1,0,G1,B,None,None,Uncharged
B-364,"InChI=1S/C10H7NO2/c12-10(13)9-6-5-7-3-1-2-4-8(7)11-9/h1-6H,(H,12,13)",-1.0911,[O-]C(=O)C1=NC2=CC=CC=C2C=C1,0,G1,B,None,None,Negative
B-367,"InChI=1S/C11H11N/c1-8-3-5-10-6-4-9(2)12-11(10)7-8/h3-7H,1-2H3",-1.9424,CC1=CC2=NC(C)=CC=C2C=C1,0,G1,B,None,None,Uncharged
B-368,"InChI=1S/C8H12ClNO/c1-3-5-10(6-4-2)8(11)7-9/h3-4H,1-2,5-7H2",-0.9452,ClCC(=O)N(CC=C)CC=C,0,G1,B,None,None,Uncharged
B-369,"InChI=1S/C10H9Cl3O3/c11-6-4-8(13)9(5-7(6)12)16-3-1-2-10(14)15/h4-5H,1-3H2,(H,14,15)",-3.8294,[O-]C(=O)CCCOC1=CC(Cl)=C(Cl)C=C1Cl,0,G1,B,None,None,Negative
B-370,"InChI=1S/C10H10O2/c1-8(11)7-10(12)9-5-3-2-4-6-9/h2-6H,7H2,1H3",-2.6268,CC(O)=CC(=O)C1=CC=CC=C1,0,G1,B,None,None,Uncharged
B-371,InChI=1S/C14H10O3/c15-13(11-7-3-1-4-8-11)17-14(16)12-9-5-2-6-10-12/h1-10H,-4.3546,O=C(OC(=O)C1=CC=CC=C1)C1=CC=CC=C1,0,G1,B,None,None,Uncharged
B-372,"InChI=1S/C11H12Cl2O3/c1-7(2)16-11(14)6-15-10-4-3-8(12)5-9(10)13/h3-5,7H,6H2,1-2H3",-3.848,CC(C)OC(=O)COC1=CC=C(Cl)C=C1Cl,0,G1,B,None,None,Uncharged
B-373,"InChI=1S/C11H15NO2/c1-8(2)7-14-11(13)9-3-5-10(12)6-4-9/h3-6,8H,7,12H2,1-2H3",-2.9437,CC(C)COC(=O)C1=CC=C(N)C=C1,0,G1,B,None,None,Uncharged
B-374,"InChI=1S/C15H23NO3/c1-4-16(5-2)11-12-19-15(17)13-7-9-14(10-8-13)18-6-3/h7-10H,4-6,11-12H2,1-3H3",-2.7145,CCOC1=CC=C(C=C1)C(=O)OCC[NH+](CC)CC,0,G1,B,None,None,Positive
B-376,"InChI=1S/C7H8N2O.HI/c1-9-5-3-2-4-7(9)6-8-10;/h2-6H,1H3;1H/b7-6+;",-0.7405,C[N+]1=CC=CC=C1C=NO,0,G1,B,None,None,Positive
B-377,"InChI=1S/C12H14Cl2O3/c1-2-3-6-16-12(15)8-17-11-5-4-9(13)7-10(11)14/h4-5,7H,2-3,6,8H2,1H3",-3.78,CCCCOC(=O)COC1=CC=C(Cl)C=C1Cl,0,G1,B,None,None,Uncharged
B-378,"InChI=1S/C11H13ClO3/c1-8-7-9(12)4-5-10(8)15-6-2-3-11(13)14/h4-5,7H,2-3,6H2,1H3,(H,13,14)",-3.678,CC1=CC(Cl)=CC=C1OCCCC([O-])=O,0,G1,B,None,None,Negative
B-379,"InChI=1S/C15H12Cl2O3/c16-12-6-7-14(13(17)10-12)19-8-9-20-15(18)11-4-2-1-3-5-11/h1-7,10H,8-9H2",-3.8118,ClC1=CC=C(OCCOC(=O)C2=CC=CC=C2)C(Cl)=C1,0,G1,B,None,None,Uncharged
B-380,"InChI=1S/C8H18O2/c1-3-5-8(10)7(4-2)6-9/h7-10H,3-6H2,1-2H3",-0.5418,CCCC(O)C(CC)CO,0.4226,G3,B,None,None,Uncharged
B-382,"InChI=1S/C18H34O6/c1-5-15(6-2)17(19)23-13-11-21-9-10-22-12-14-24-18(20)16(7-3)8-4/h15-16H,5-14H2,1-4H3",-3.2386,CCC(CC)C(=O)OCCOCCOCCOC(=O)C(CC)CC,0,G1,B,None,None,Uncharged
B-383,"InChI=1S/C4H8N2O2/c1-3(5-7)4(2)6-8/h5,7H,1-2H3/b4-3-",-2.2868,CC(=NO)C(C)=NO,0,G1,B,None,None,Uncharged
B-384,"InChI=1S/C8H11N/c1-6-3-4-8(9)5-7(6)2/h3-5H,9H2,1-2H3",-1.5036,CC1=CC=C(N)C=C1C,0,G1,B,None,None,Uncharged
B-386,"InChI=1S/C6H4Cl2O/c7-5-2-1-4(9)3-6(5)8/h1-3,9H",-1.2458,OC1=CC=C(Cl)C(Cl)=C1,0,G1,B,None,None,Uncharged
B-387,"InChI=1S/C6H10O4/c1-3-9-5(7)6(8)10-4-2/h3-4H2,1-2H3",-0.6085,CCOC(=O)C(=O)OCC,0,G1,B,None,None,Uncharged
B-389,"InChI=1S/C3H6Br2O/c4-1-3(5)2-6/h3,6H,1-2H2",-0.6222,OCC(Br)CBr,0,G1,B,None,None,Uncharged
B-390,"InChI=1S/C3H5Cl3/c4-1-3(6)2-5/h3H,1-2H2",-1.9255,ClCC(Cl)CCl,0,G1,B,None,None,Uncharged
B-391,"InChI=1S/C4H11NO/c1-2-4(5)3-6/h4,6H,2-3,5H2,1H3",1.0499,CCC([NH3+])CO,0,G1,B,None,None,Positive
B-392,"InChI=1S/C3H7ClO2/c4-1-3(6)2-5/h3,5-6H,1-2H2",0.9565,OCC(O)CCl,0,G1,B,None,None,Uncharged
B-393,"InChI=1S/C4H9NO/c1-3-4(2)5-6/h6H,3H2,1-2H3/b5-4+",0.0599,CCC(C)=NO,0,G1,B,None,None,Uncharged
B-395,"InChI=1S/C5H10O/c1-5-3-2-4-6-5/h5H,2-4H2,1H3",0.2069,CC1CCCO1,0.081662735,G5,B,None,None,Uncharged
B-398,"InChI=1S/C7H16FO2P/c1-6(7(2,3)4)10-11(5,8)9/h6H,1-5H3",-0.9383,CC(OP(C)(F)=O)C(C)(C)C,0,G1,B,None,None,Uncharged
B-400,"InChI=1S/C8H19NO/c1-7(2)9(5-6-10)8(3)4/h7-8,10H,5-6H2,1-4H3",-1.0829,CC(C)[NH+](CCO)C(C)C,0,G1,B,None,None,Positive
B-401,"InChI=1S/C7H13NO3/c1-4(2)6(7(10)11)8-5(3)9/h4,6H,1-3H3,(H,8,9)(H,10,11)/t6-/m0/s1",-0.3599,CC(C)C(NC(C)=O)C([O-])=O,0,G1,B,None,None,Negative
B-404,"InChI=1S/C12H6Cl4O2S/c13-5-1-7(15)11(17)9(3-5)19-10-4-6(14)2-8(16)12(10)18/h1-4,17-18H",-4.9495,OC1=C(Cl)C=C(Cl)C=C1SC1=CC(Cl)=CC(Cl)=C1[O-],0,G1,B,None,None,Negative
B-407,"InChI=1S/C6H12O2/c1-3-4-5(2)6(7)8/h5H,3-4H2,1-2H3,(H,7,8)",-0.889,CCCC(C)C([O-])=O,0.044848386,G3,B,None,None,Negative
B-408,"InChI=1S/C5H10O3/c1-3-8-5(7)4(2)6/h4,6H,3H2,1-2H3",0.9276,CCOC(=O)C(C)O,0,G1,B,None,None,Uncharged
B-410,"InChI=1S/C8H16O2/c1-6(2)5-10-8(9)7(3)4/h6-7H,5H2,1-4H3",-2.159,CC(C)COC(=O)C(C)C,0.122,G3,B,None,None,Uncharged
B-413,"InChI=1S/C5H6O2/c6-4-5-2-1-3-7-5/h1-3,6H,4H2",1.0083,OCC1=CC=CO1,0,G1,B,None,None,Uncharged
B-415,"InChI=1S/C10H14O2/c1-10(2,3)7-4-5-8(11)9(12)6-7/h4-6,11-12H,1-3H3",-1.9197,CC(C)(C)C1=CC=C(O)C(O)=C1,0.161133006,G3,B,None,None,Uncharged
B-419,"InChI=1S/C10H18O/c1-8-4-6-9(7-5-8)10(2,3)11/h4,9,11H,5-7H2,1-3H3/t9-/m0/s1",-2.337,CC1=CCC(CC1)C(C)(C)O,1.533418934,G4,B,None,None,Uncharged
B-420,"InChI=1S/C6H4ClIO2S/c7-11(9,10)6-3-1-5(8)2-4-6/h1-4H",-4.2686,ClS(=O)(=O)C1=CC=C(I)C=C1,0,G1,B,None,None,Uncharged
B-422,"InChI=1S/C8H10O/c1-7(9)8-5-3-2-4-6-8/h2-7,9H,1H3",-1.7969,CC(O)C1=CC=CC=C1,0.495852011,G5,B,None,None,Uncharged
B-423,"InChI=1S/C7H6Cl2/c8-7(9)6-4-2-1-3-5-6/h1-5,7H",-2.809,ClC(Cl)C1=CC=CC=C1,0.674345734,G2,B,None,None,Uncharged
B-424,"InChI=1S/C6H5NO2/c8-6(9)5-3-1-2-4-7-5/h1-4H,(H,8,9)",0.892,[O-]C(=O)C1=CC=CC=N1,0,G1,B,None,None,Negative
B-425,"InChI=1S/C20H22O8/c21-10-13-8-4-5-9-14(13)27-20-18(24)17(23)16(22)15(28-20)11-26-19(25)12-6-2-1-3-7-12/h1-9,15-18,20-24H,10-11H2/t15-,16-,17+,18-,20-/m1/s1",-2.8925,OCC1=CC=CC=C1OC1OC(COC(=O)C2=CC=CC=C2)C(O)C(O)C1O,0,G1,B,None,None,Uncharged
B-426,"InChI=1S/C8H8O5/c1-13-8(12)4-2-5(9)7(11)6(10)3-4/h2-3,9-11H,1H3",-1.2399,COC(=O)C1=CC(O)=C(O)C(O)=C1,0,G1,B,None,None,Uncharged
B-427,"InChI=1S/C6H4Cl2N2O2/c7-4-1-3(10(11)12)2-5(8)6(4)9/h1-2H,9H2",-4.4709,NC1=C(Cl)C=C(C=C1Cl)[N+]([O-])=O,0,G1,B,None,None,PureChargeSeparation
B-428,"InChI=1S/C7H4O6/c8-3-1-4(6(9)10)13-5(2-3)7(11)12/h1-2H,(H,9,10)(H,11,12)",-1.1097,[O-]C(=O)C1=CC(=O)C=C(O1)C([O-])=O,0,G1,B,None,None,Negative
B-429,"InChI=1S/C10H14O/c1-7(2)9-5-4-8(3)10(11)6-9/h4,9H,1,5-6H2,2-3H3",-2.0628,CC(=C)C1CC=C(C)C(=O)C1,0,G1,B,None,None,Uncharged
B-432,"InChI=1S/C10H14O/c1-3-8(2)9-4-6-10(11)7-5-9/h4-8,11H,3H2,1-2H3",-2.1945,CCC(C)C1=CC=C(O)C=C1,0,G1,B,None,None,Uncharged
B-434,"InChI=1S/C10H16/c1-8(2)10-6-4-9(3)5-7-10/h4,7-8H,5-6H2,1-3H3",-4.1958,CC(C)C1=CCC(C)=CC1,0,G1,B,None,None,Uncharged
B-436,"InChI=1S/C8H6O4/c9-7(10)5-1-2-6(4-3-5)8(11)12/h1-4H,(H,9,10)(H,11,12)",-4.0444,[O-]C(=O)C1=CC=C(C=C1)C([O-])=O,0.0728,G3,B,None,None,Negative
B-437,"InChI=1S/C6H15NO/c1-3-7(4-2)5-6-8/h8H,3-6H2,1-2H3",0.9311,CC[NH+](CC)CCO,0,G1,B,None,None,Positive
B-440,InChI=1S/C6H4N2/c7-5-6-1-3-8-4-2-6/h1-4H,-0.4154,N#CC1=CC=NC=C1,0,G1,B,None,None,Uncharged
B-441,"InChI=1S/C6H4N2/c7-4-6-2-1-3-8-5-6/h1-3,5H",0.1128,N#CC1=CC=CN=C1,0,G1,B,None,None,Uncharged
B-444,"InChI=1S/C6H12O2/c7-5-6-3-1-2-4-8-6/h6-7H,1-5H2",0.9349,OCC1CCCCO1,0,G1,B,None,None,Uncharged
B-445,"InChI=1S/C6H13NO/c1-2-7-3-5-8-6-4-7/h2-6H2,1H3",0.9386,CC[NH+]1CCOCC1,0.259259682,G3,B,None,None,Positive
B-447,"InChI=1S/C9H9ClO3/c1-6(9(11)12)13-8-4-2-3-7(10)5-8/h2-6H,1H3,(H,11,12)",-2.2232,CC(OC1=CC=CC(Cl)=C1)C([O-])=O,0,G1,B,None,None,Negative
B-450,"InChI=1S/C17H23NO3/c1-18-13-7-8-14(18)10-15(9-13)21-17(20)16(11-19)12-5-3-2-4-6-12/h2-6,13-16,19H,7-11H2,1H3/t13-,14+,15?,16-/m1/s1",-1.91,C[NH+]1C2CCC1CC(C2)OC(=O)C(CO)C1=CC=CC=C1,0,G1,B,None,None,Positive
B-451,"InChI=1S/C13H12O/c14-13-8-6-12(7-9-13)10-11-4-2-1-3-5-11/h1-9,14H,10H2",-3.4009,OC1=CC=C(CC2=CC=CC=C2)C=C1,0,G1,B,None,None,Uncharged
B-454,"InChI=1S/C13H12N2O/c16-13(14-11-7-3-1-4-8-11)15-12-9-5-2-6-10-12/h1-10H,(H2,14,15,16)",-3.1508,O=C(NC1=CC=CC=C1)NC1=CC=CC=C1,0.884755805,G2,B,None,None,Uncharged
B-455,"InChI=1S/C12H18/c1-4-10-7-11(5-2)9-12(6-3)8-10/h7-9H,4-6H2,1-3H3",-7.0641,CCC1=CC(CC)=CC(CC)=C1,0,G1,B,None,None,Uncharged
B-456,"InChI=1S/C9H22N2/c1-5-10(6-2)9-11(7-3)8-4/h5-9H2,1-4H3",-0.1995,CCN(CC)C[NH+](CC)CC,0,G1,B,None,None,Positive
B-457,"InChI=1S/C14H32N2O4/c1-11(17)7-15(8-12(2)18)5-6-16(9-13(3)19)10-14(4)20/h11-14,17-20H,5-10H2,1-4H3",0.534,CC(O)CN(CC[NH+](CC(C)O)CC(C)O)CC(C)O,0,G1,B,None,None,Positive
B-458,"InChI=1S/C9H15N/c1-4-7-10(8-5-2)9-6-3/h4-6H,1-3,7-9H2",-1.7395,C=CC[NH+](CC=C)CC=C,0,G1,B,None,None,Positive
B-461,"InChI=1S/C12H27N/c1-4-7-10-13(11-8-5-2)12-9-6-3/h4-12H2,1-3H3",-3.1157,CCCC[NH+](CCCC)CCCC,0.282425621,G5,B,None,None,Positive
B-464,"InChI=1S/C8H9Br/c9-7-6-8-4-2-1-3-5-8/h1-5H,6-7H2",-3.6757,BrCCC1=CC=CC=C1,0,G1,B,None,None,Uncharged
B-465,"InChI=1S/C8H11N/c1-9-7-8-5-3-2-4-6-8/h2-6,9H,7H2,1H3",0.9166,C[NH2+]CC1=CC=CC=C1,0,G1,B,None,None,Positive
B-468,"InChI=1S/C9H11NO/c1-7-3-5-9(6-4-7)10-8(2)11/h3-6H,1-2H3,(H,10,11)",-2.0946,CC(=O)NC1=CC=C(C)C=C1,0.0673,G3,B,None,None,Uncharged
B-470,"InChI=1S/C10H12N4OS/c1-7(15)13-9-4-2-8(3-5-9)6-12-14-10(11)16/h2-6H,1H3,(H,13,15)(H3,11,14,16)/b12-6+",-3.429,CC(=O)NC1=CC=C(C=NNC(N)=S)C=C1,0,G1,B,None,None,Uncharged
B-471,"InChI=1S/C7H8O3S/c1-6-2-4-7(5-3-6)11(8,9)10/h2-5H,1H3,(H,8,9,10)",0.5564,CC1=CC=C(C=C1)S([O-])(=O)=O,0.134880026,G3,B,None,None,Negative
B-472,"InChI=1S/C14H18O4/c1-3-17-10-11-18-14(15)9-6-12-4-7-13(16-2)8-5-12/h4-9H,3,10-11H2,1-2H3/b9-6+",-2.6995,CCOCCOC(=O)C=CC1=CC=C(OC)C=C1,0,G1,B,None,None,Uncharged
B-473,"InChI=1S/C9H11ClO3/c10-7-1-3-9(4-2-7)13-6-8(12)5-11/h1-4,8,11-12H,5-6H2",-1.3067,OCC(O)COC1=CC=C(Cl)C=C1,1.369023984,G2,B,None,None,Uncharged
B-476,"InChI=1S/C16H26/c1-2-3-4-5-6-7-8-10-13-16-14-11-9-12-15-16/h9,11-12,14-15H,2-8,10,13H2,1H3",-7.959,CCCCCCCCCCC1=CC=CC=C1,0,G1,B,None,None,Uncharged
B-478,"InChI=1S/C6H12O3/c7-3-5-1-2-6(4-8)9-5/h5-8H,1-4H2",0.8789,OCC1CCC(CO)O1,0,G1,B,None,None,Uncharged
B-484,"InChI=1S/C6H10O/c1-3-5-6(7)4-2/h2,6-7H,3,5H2,1H3",-0.4121,CCCC(O)C#C,0,G1,B,None,None,Uncharged
B-485,"InChI=1S/C4H7ClO2/c1-2-7-4(6)3-5/h2-3H2,1H3",-0.8005,CCOC(=O)CCl,0,G1,B,None,None,Uncharged
B-486,"InChI=1S/C5H8O3/c1-4(6)3-5(7)8-2/h3H2,1-2H3",0.6341,COC(=O)CC(C)=O,0.150503967,G3,B,None,None,Uncharged
B-487,"InChI=1S/C6H12O2/c1-4-5(2)8-6(3)7/h5H,4H2,1-3H3",-1.2727,CCC(C)OC(C)=O,0,G1,B,None,None,Uncharged
B-491,"InChI=1S/C10H18O4/c1-3-5-9(11)13-7-8-14-10(12)6-4-2/h3-8H2,1-2H3",-2.6069,CCCC(=O)OCCOC(=O)CCC,0,G1,B,None,None,Uncharged
B-493,"InChI=1S/C12H22O6/c1-15-7-9-17-11(13)5-3-4-6-12(14)18-10-8-16-2/h3-10H2,1-2H3",-1.2665,COCCOC(=O)CCCCC(=O)OCCOC,0,G1,B,None,None,Uncharged
B-496,"InChI=1S/C9H18O2/c1-3-5-6-7-8-9(10)11-4-2/h3-8H2,1-2H3",-2.7369,CCCCCCC(=O)OCC,0.177352011,G5,B,None,None,Uncharged
B-497,"InChI=1S/C10H20O2/c1-3-5-6-7-8-9-10(11)12-4-2/h3-9H2,1-2H3",-3.3907,CCCCCCCC(=O)OCC,0,G1,B,None,None,Uncharged
B-498,"InChI=1S/C6H6O2.C6H4O2/c2*7-5-1-2-6(8)4-3-5/h1-4,7-8H;1-4H",-1.7305,OC1=CC=C(O)C=C1,0,G1,B,None,Multi-constituent Substances,Uncharged
B-499,"InChI=1S/C7H14O/c1-3-5-6-7(8)4-2/h3-6H2,1-2H3",-1.4242,CCCCC(=O)CC,0.2611,G3,B,None,None,Uncharged
B-501,"InChI=1S/C4H6N2O2/c7-3-1-5-4(8)2-6-3/h1-2H2,(H,5,8)(H,6,7)",-0.8312,O=C1CNC(=O)CN1,0,G1,B,None,None,Uncharged
B-502,"InChI=1S/C6H14O3/c1-5(8)4-9-6(2)3-7/h5-8H,3-4H2,1-2H3",0.8723,CC(O)COC(C)CO,0,G1,B,None,None,Uncharged
B-504,"InChI=1S/C8H16O/c1-3-5-6-7-8(9)4-2/h3-7H2,1-2H3",-1.693,CCCCCC(=O)CC,0.302017278,G3,B,None,None,Uncharged
B-506,"InChI=1S/C12H22O4/c1-15-11(13)9-7-5-3-4-6-8-10-12(14)16-2/h3-10H2,1-2H3",-3.2831,COC(=O)CCCCCCCCC(=O)OC,0.199682507,G3,B,None,None,Uncharged
B-508,"InChI=1S/C3H3Br/c1-2-3-4/h1H,3H2",-0.9022,BrCC#C,0,G1,B,None,None,Uncharged
B-509,"InChI=1S/C4H6/c1-3-4-2/h1H,4H2,2H3",-1.2753,CCC#C,0.01765,G3,B,None,None,Uncharged
B-510,"InChI=1S/C3H8S/c1-2-3-4/h4H,2-3H2,1H3",-1.6021,CCCS,0,G1,B,None,None,Uncharged
B-511,InChI=1S/C2H4BrCl/c3-1-2-4/h1-2H2,-1.3177,ClCCBr,0,G1,B,None,None,Uncharged
B-512,"InChI=1S/C3H5Cl/c1-2-3-4/h2H,1,3H2",-1.3562,ClCC=C,0.2639,G3,B,None,None,Uncharged
B-515,"InChI=1S/C3H7N/c1-2-3-4/h2H,1,3-4H2",1.2434,[NH3+]CC=C,0,G1,B,None,None,Positive
B-517,InChI=1S/C2H8N2/c3-1-2-4/h1-4H2,1.2211,NCC[NH3+],1.006601369,G2,B,None,None,Positive
B-518,"InChI=1S/C3H6O/c1-2-3-4/h2,4H,1,3H2",1.236,OCC=C,1.183279076,G2,B,None,None,Uncharged
B-520,"InChI=1S/C2H6O2/c3-1-2-4/h3-4H,1-2H2",1.2071,OCCO,0.56355,G2,B,None,None,Uncharged
B-521,InChI=1S/C2H2O2/c3-1-2-4/h1-2H,1.2363,O=CC=O,0,G1,B,None,None,Uncharged
B-524,"InChI=1S/C2H7NO3S/c3-1-2-7(4,5)6/h1-3H2,(H,4,5,6)",-0.1906,[NH3+]CCS([O-])(=O)=O,0,G1,B,None,None,Zwitterion
B-525,"InChI=1S/C2H6O4S/c3-1-2-7(4,5)6/h3H,1-2H2,(H,4,5,6)",0.8992,OCCS([O-])(=O)=O,0,G1,B,None,None,Negative
B-526,"InChI=1S/C6H14O2/c1-5(7)4-6(2,3)8/h5,7-8H,4H2,1-3H3",0.9275,CC(O)CC(C)(C)O,0,G1,B,None,None,Uncharged
B-527,"InChI=1S/C4H10FO2P/c1-4(2)7-8(3,5)6/h4H,1-3H3",0.8536,CC(C)OP(C)(F)=O,0,G1,B,None,None,Uncharged
B-529,"InChI=1S/C8H20O7P2/c1-5-11-16(9,12-6-2)15-17(10,13-7-3)14-8-4/h5-8H2,1-4H3",0.5373,CCOP(=O)(OCC)OP(=O)(OCC)OCC,0,G1,B,None,None,Uncharged
B-530,"InChI=1S/C8H24O2Si3/c1-11(2,3)9-13(7,8)10-12(4,5)6/h1-8H3",-6.8424,C[Si](C)(C)O[Si](C)(C)O[Si](C)(C)C,0,G1,B,None,None,Uncharged
B-532,"InChI=1S/C3H4Cl3NO2/c4-3(5,6)1-9-2(7)8/h1H2,(H2,7,8)",-1.2843,NC(=O)OCC(Cl)(Cl)Cl,0,G1,B,None,None,Uncharged
B-533,"InChI=1S/C7H14O2/c1-6(8)5-7(2,3)9-4/h5H2,1-4H3",0.3326,COC(C)(C)CC(C)=O,0,G1,B,None,None,Uncharged
B-534,"InChI=1S/C5H11Br/c1-5(2)3-4-6/h5H,3-4H2,1-2H3",-2.886,CC(C)CCBr,0,G1,B,None,None,Uncharged
B-536,"InChI=1S/C4H10O2/c1-4(6)2-3-5/h4-6H,2-3H2,1H3",1.0452,CC(O)CCO,0,G1,B,None,None,Uncharged
B-537,"InChI=1S/C4H8O2/c1-4(6)2-3-5/h3-4,6H,2H2,1H3",1.055,CC(O)CC=O,0,G1,B,None,None,Uncharged
B-538,"InChI=1S/C3H4N2O/c4-2-1-3(5)6/h1H2,(H2,5,6)",0.1893,NC(=O)CC#N,0,G1,B,None,None,Uncharged
B-539,"InChI=1S/C4H8O2/c1-2-3-4(5)6/h2-3H2,1H3,(H,5,6)",-0.1669,CCCC([O-])=O,0.581530378,G4,B,None,None,Negative
B-542,"InChI=1S/C3H7NO2/c1-4-2-3(5)6/h4H,2H2,1H3,(H,5,6)",0.5273,C[NH2+]CC([O-])=O,0,G1,B,None,None,Zwitterion
B-544,"InChI=1S/C4H11NO/c1-5(2)3-4-6/h6H,3-4H2,1-2H3",1.0499,C[NH+](C)CCO,0,G1,B,None,None,Positive
B-545,"InChI=1S/C7H16/c1-6(2)5-7(3)4/h6-7H,5H2,1-4H3",-4.2605,CC(C)CC(C)C,0,G1,B,None,None,Uncharged
B-546,"InChI=1S/C6H14O/c1-5(2)4-6(3)7/h5-7H,4H2,1-3H3",-0.7945,CC(C)CC(C)O,0.061801673,G3,B,None,None,Uncharged
B-549,InChI=1S/C4H6O3/c1-3(5)7-4(2)6/h1-2H3,0.0702,CC(=O)OC(C)=O,0,G1,B,None,None,Uncharged
B-550,"InChI=1S/C5H4O2/c1-4-2-3-5(6)7-4/h2-3H,1H2",-0.9827,C=C1OC(=O)C=C1,0,G1,B,None,None,Uncharged
B-551,"InChI=1S/C8H15N2O4P/c1-4-12-15(11,13-5-2)14-8-6-7(3)9-10-8/h6H,4-5H2,1-3H3,(H,9,10)",-2.3696,CCOP(=O)(OCC)OC1=NNC(C)=C1,0,G1,B,None,None,Uncharged
B-552,"InChI=1S/C7H7Cl/c1-6-3-2-4-7(8)5-6/h2-5H,1H3",-3.5228,CC1=CC=CC(Cl)=C1,0,G1,B,None,None,Uncharged
B-553,"InChI=1S/C8H16O4/c1-5-9-6(2)11-8(4)12-7(3)10-5/h5-8H,1-4H3",-2.8997,CC1OC(C)OC(C)OC(C)O1,0.01515,G3,B,None,None,Uncharged
B-554,"InChI=1S/C7H14O2/c1-4-9-7(8)5-6(2)3/h6H,4-5H2,1-3H3",-1.8135,CCOC(=O)CC(C)C,0.092063658,G5,B,None,None,Uncharged
B-556,"InChI=1S/C8H11N/c1-6-4-7(2)9-8(3)5-6/h4-5H,1-3H3",-0.5394,CC1=CC(C)=[NH+]C(C)=C1,0,G1,B,None,None,Positive
B-561,"InChI=1S/C8H16O2/c1-6(2)5-7(3)10-8(4)9/h6-7H,5H2,1-4H3",-2.0451,CC(C)CC(C)OC(C)=O,0,G1,B,None,None,Uncharged
B-563,"InChI=1S/C6H7N/c1-6-2-4-7-5-3-6/h2-5H,1H3",1.0309,CC1=CC=NC=C1,0,G1,B,None,None,Uncharged
B-565,"InChI=1S/C6H6S/c7-6-4-2-1-3-5-6/h1-5,7H",-2.1204,[S-]C1=CC=CC=C1,0,G1,B,None,None,Negative
B-566,"InChI=1S/C6H7N/c1-6-3-2-4-7-5-6/h2-5H,1H3",1.0309,CC1=CC=CN=C1,0,G1,B,None,None,Uncharged
B-567,"InChI=1S/C5H11NO/c1-6-2-4-7-5-3-6/h2-5H2,1H3",0.995,C[NH+]1CCOCC1,0,G1,B,None,None,Positive
B-569,"InChI=1S/C5H12N2/c1-5-4-6-2-3-7-5/h5-7H,2-4H2,1H3",0.6378,CC1C[NH2+]CCN1,0.0511,G3,B,None,None,Positive
B-570,"InChI=1S/C5H6N2/c1-5-4-6-2-3-7-5/h2-4H,1H3",1.0263,CC1=CN=CC=N1,0,G1,B,None,None,Uncharged