ID,InChI,Solubility,SMILEScurated,SD,Group,Dataset,Composition,Error,Charge
A-2415,"InChI=1S/CH4S.Na/c1-2;/h2H,1H3;/q;+1/p-1",-1.845668452,CS,0,G1,A,mono-constituent,None,Uncharged
A-2417,"InChI=1S/C17H17NO2/c1-2-20-16(19)13-18-17(14-9-5-3-6-10-14)15-11-7-4-8-12-15/h3-12H,2,13H2,1H3",-3.427044449,CCOC(=O)CN=C(C1=CC=CC=C1)C1=CC=CC=C1,0,G1,A,mono-constituent,None,Uncharged
A-2418,"InChI=1S/C35H54O6P2/c1-23-15-25(31(3,4)5)29(26(16-23)32(6,7)8)40-42-36-19-35(20-37-42)21-38-43(39-22-35)41-30-27(33(9,10)11)17-24(2)18-28(30)34(12,13)14/h15-18H,19-22H2,1-14H3",-7.801238331,CC1=CC(=C(OP2OCC3(CO2)COP(OC2=C(C=C(C)C=C2C(C)(C)C)C(C)(C)C)OC3)C(=C1)C(C)(C)C)C(C)(C)C,0.707486674,G2,A,mono-constituent,None,Uncharged
A-2419,"InChI=1S/Al.H3O4P/c;1-5(2,3)4/h;(H3,1,2,3,4)/q+3;/p-3",-4.246082833,OP([O-])([O-])=O,0,G1,A,mono-constituent,None,Negative
A-2420,"InChI=1S/C31H54N2O8/c1-7-38-28(34)18-26(30(36)40-9-3)32-24-13-11-22(15-20(24)5)17-23-12-14-25(21(6)16-23)33-27(31(37)41-10-4)19-29(35)39-8-2/h20-27,32-33H,7-19H2,1-6H3",-5.06653389,CCOC(=O)CC(NC1CCC(CC2CCC([NH2+]C(CC(=O)OCC)C(=O)OCC)C(C)C2)CC1C)C(=O)OCC,0,G1,A,mono-constituent,None,Positive
A-2421,"InChI=1S/C19H38N2O3/c1-4-5-6-7-8-9-10-11-12-14-18(22)20-15-13-16-21(2,3)17-19(23)24/h4-17H2,1-3H3,(H-,20,22,23,24)",-3.136750998,CCCCCCCCCCCC(=O)NCCC[N+](C)(C)CC([O-])=O,0,G1,A,UVCB,None,Zwitterion
A-2423,"InChI=1S/C6H15NO2/c1-7(2)3-5-9-6-4-8/h8H,3-6H2,1-2H3",-0.12447488,C[NH+](C)CCOCCO,0,G1,A,mono-constituent,None,Positive
A-2424,"InChI=1S/C6H7N3O2/c7-4-1-2-6(9(10)11)5(8)3-4/h1-3H,7-8H2",-2.185091479,NC1=CC=C(C(N)=C1)[N+]([O-])=O,0.697663197,G2,A,mono-constituent,None,PureChargeSeparation
A-2425,"InChI=1S/2C12H24O2.2C4H9.Sn/c2*1-2-3-4-5-6-7-8-9-10-11-12(13)14;2*1-3-4-2;/h2*2-11H2,1H3,(H,13,14);2*1,3-4H2,2H3;/q;;;;+2/p-2",-5.645086143,CCCC[Sn++]CCCC.CCCCCCCCCCCC([O-])=O.CCCCCCCCCCCC([O-])=O,0,G1,A,None,Multi-constituent Substances,Negative
A-2428,"InChI=1S/4C2H5.Pb/c4*1-2;/h4*1H2,2H3;",-5.412894457,CC[Pb](CC)(CC)CC,0.380562295,G5,A,mono-constituent,None,Uncharged
A-2430,"InChI=1S/C37H69NO5/c1-3-5-7-9-11-13-15-17-19-21-23-25-27-29-35(39)38-32-33(31-34(38)37(41)42)43-36(40)30-28-26-24-22-20-18-16-14-12-10-8-6-4-2/h33-34H,3-32H2,1-2H3,(H,41,42)/t33-,34+/m1/s1",-5.783875721,CCCCCCCCCCCCCCCC(=O)OC1CC(N(C1)C(=O)CCCCCCCCCCCCCCC)C([O-])=O,0,G1,A,mono-constituent,None,Negative
A-2433,InChI=1S/Ce.3FH/h;3*1H/q+3;;;/p-3,-5.863344894,[Ce+3],0.422520274,G5,A,None,None,Uncharged
A-2434,InChI=1S/C18H15P/c1-4-10-16(11-5-1)19(17-12-6-2-7-13-17)18-14-8-3-9-15-18/h1-15H,-6.2013011,C1=CC=C(C=C1)P(C1=CC=CC=C1)C1=CC=CC=C1,0.131620717,G3,A,mono-constituent,None,Uncharged
A-2436,"InChI=1S/C10H18/c1-5-10(4)8-6-7-9(2)3/h5,7,10H,1,6,8H2,2-4H3",-5.964586446,CC(CCC=C(C)C)C=C,0,G1,A,mono-constituent,Non Valid pH,Uncharged
A-2437,"InChI=1S/C10H20O2.C8H16O2.C7H14O2.C5H12O4.C5H10O2/c1-2-3-4-5-6-7-8-9-10(11)12;1-2-3-4-5-6-7-8(9)10;1-2-3-4-5-6-7(8)9;6-1-5(2-7,3-8)4-9;1-2-3-4-5(6)7/h2-9H2,1H3,(H,11,12);2-7H2,1H3,(H,9,10);2-6H2,1H3,(H,8,9);6-9H,1-4H2;2-4H2,1H3,(H,6,7)",-7.53462824,CCCCCCCCCC([O-])=O,0,G1,A,None,Multi-constituent Substances,Negative
A-2438,"InChI=1S/C20H38O4S/c1-5-9-11-17(7-3)13-23-19(21)15-25-16-20(22)24-14-18(8-4)12-10-6-2/h17-18H,5-16H2,1-4H3",-6.654998171,CCCCC(CC)COC(=O)CSCC(=O)OCC(CC)CCCC,0,G1,A,mono-constituent,None,Uncharged
A-2442,"InChI=1S/C20H18O2/c1-13(2)6-5-7-14-10-11-17-18(12-14)20(22)16-9-4-3-8-15(16)19(17)21/h3-4,6,8-12H,5,7H2,1-2H3",-7.985818524,CC(C)=CCCC1=CC=C2C(=O)C3=CC=CC=C3C(=O)C2=C1,0,G1,A,mono-constituent,None,Uncharged
A-2443,"InChI=1S/C25H40O4/c1-3-5-7-9-11-13-17-21-29-25(27)23-19-15-14-18-22(23)24(26)28-20-16-12-10-8-6-4-2/h14-15,18-19H,3-13,16-17,20-21H2,1-2H3",-4.780941415,CCCCCCCCCOC(=O)C1=CC=CC=C1C(=O)OCCCCCCCC,0,G1,A,multi-constituent,None,Uncharged
A-2444,"InChI=1S/C22H44O2.Li/c1-2-3-4-5-6-7-8-9-10-11-12-13-14-15-16-17-18-19-20-21-22(23)24;/h2-21H2,1H3,(H,23,24);/q;+1/p-1",-6.876976741,CCCCCCCCCCCCCCCCCCCCCC([O-])=O,0,G1,A,mono-constituent,None,Negative
A-2445,"InChI=1S/C14H28O2.Li/c1-2-3-4-5-6-7-8-9-10-11-12-13-14(15)16;/h2-13H2,1H3,(H,15,16);/q;+1/p-1",-6.707031139,CCCCCCCCCCCCCC([O-])=O,0,G1,A,mono-constituent,None,Negative
A-2446,"InChI=1S/C18H34O2.Li/c1-2-3-4-5-6-7-8-9-10-11-12-13-14-15-16-17-18(19)20;/h9-10H,2-8,11-17H2,1H3,(H,19,20);/q;+1/p-1/b10-9-;",-6.79723893,CCCCCCCCC=CCCCCCCCC([O-])=O,0,G1,A,mono-constituent,None,Negative
A-2447,"InChI=1S/C18H36O3.Li/c1-2-3-4-11-14-17(19)15-12-9-7-5-6-8-10-13-16-18(20)21;/h17,19H,2-16H2,1H3,(H,20,21);/q;+1/p-1",-6.823553607,CCCCCCC(O)CCCCCCCCCCC([O-])=O,0,G1,A,mono-constituent,None,Negative
A-2448,"InChI=1S/C18H15P.C5H7O2.CO.Rh/c1-4-10-16(11-5-1)19(17-12-6-2-7-13-17)18-14-8-3-9-15-18;1-4(6)3-5(2)7;1-2;/h1-15H;3H,1-2H3;;/q;-1;;",-7.312033591,C1=CC=C(C=C1)P(C1=CC=CC=C1)C1=CC=CC=C1,0,G1,A,None,Multi-constituent Substances,Uncharged
A-2450,"InChI=1S/C17H34N2O/c1-17(2)11-7-5-3-4-6-8-15-20-16-10-14-19-13-9-12-18/h17,19H,3-11,13-16H2,1-2H3",-3.618466492,CC(C)CCCCCCCCOCCC[NH2+]CCC#N,0,G1,A,mono-constituent,None,Positive
A-2451,"InChI=1S/C15H24O2/c1-12(2)6-4-7-14-8-5-9-15(10-14)11-17-13(3)16/h6,8,15H,4-5,7,9-11H2,1-3H3/t15-/m0/s1",-4.975624785,CC(C)=CCCC1=CCCC(COC(C)=O)C1,0,G1,A,multi-constituent,None,Uncharged
A-2453,"InChI=1S/C41H27N7O6/c1-18(49)25-16-27(29-31(33(25)42)37(53)23-14-8-6-12-21(23)35(29)51)44-40-46-39(20-10-4-3-5-11-20)47-41(48-40)45-28-17-26(19(2)50)34(43)32-30(28)36(52)22-13-7-9-15-24(22)38(32)54/h3-17H,42-43H2,1-2H3,(H2,44,45,46,47,48)",-4.950431795,CC(=O)C1=CC(NC2=NC(NC3=CC(C(C)=O)=C(N)C4=C3C(=O)C3=CC=CC=C3C4=O)=NC(=N2)C2=CC=CC=C2)=C2C(=O)C3=CC=CC=C3C(=O)C2=C1N,0,G1,A,mono-constituent,None,Uncharged
A-2455,"InChI=1S/C19H38O4/c1-2-3-4-5-6-7-8-9-10-11-12-13-14-15-19(22)23-17-18(21)16-20/h18,20-21H,2-17H2,1H3",-4.726791601,CCCCCCCCCCCCCCCC(=O)OCC(O)CO,0,G1,A,UVCB,None,Uncharged
A-2456,"InChI=1S/C28H52N2O4.C8H18.C4H10O2/c1-25(2)17-21(18-26(3,4)29-25)33-23(31)15-13-11-9-10-12-14-16-24(32)34-22-19-27(5,6)30-28(7,8)20-22;1-3-5-7-8-6-4-2;1-4(2,3)6-5/h21-22,29-30H,9-20H2,1-8H3;3-8H2,1-2H3;5H,1-3H3",-5.05759511,CC1(C)CC(CC(C)(C)[NH2+]1)OC(=O)CCCCCCCCC(=O)OC1CC(C)(C)[NH2+]C(C)(C)C1,0,G1,A,None,Multi-constituent Substances,Positive
A-2457,"InChI=1S/2C10H20O2S.2CH3.Sn/c2*1-3-5-6-9(4-2)7-12-10(11)8-13;;;/h2*9,13H,3-8H2,1-2H3;2*1H3;/q;;;;+2/p-2",-4.045663238,CCCCC(CC)COC(=O)CS[Sn](C)(C)SCC(=O)OCC(CC)CCCC,0,G1,A,mono-constituent,None,Uncharged
A-2458,"InChI=1S/C22H42N2O/c1-2-3-4-5-6-7-8-9-10-11-12-13-14-15-16-17-22-23-18-19-24(22)20-21-25/h9-10,25H,2-8,11-21H2,1H3/b10-9-",-3.845830759,CCCCCCCCC=CCCCCCCCC1=[NH+]CCN1CCO,0.150514998,G3,A,None,None,Positive
A-2460,"InChI=1S/C15H22O3.ClH.H2O.Zn/c1-14(2,3)9-7-10(13(17)18)12(16)11(8-9)15(4,5)6;;;/h7-8,16H,1-6H3,(H,17,18);1H;1H2;",-4.869471103,CC(C)(C)C1=CC(C([O-])=O)=C(O)C(=C1)C(C)(C)C,0,G1,A,None,None,Negative
A-2461,"InChI=1S/2C36H59O2PS2.Zn/c2*1-9-13-27(5)35(15-11-3)29(7)25-31-17-21-33(22-18-31)37-39(40,41)38-34-23-19-32(20-24-34)26-30(8)36(16-12-4)28(6)14-10-2;/h2*17-24,27-30,35-36H,9-16,25-26H2,1-8H3,(H,40,41);/q;;+2/p-2",-5.415414768,CCCC(C)C(CCC)C(C)CC1=CC=C(OP([S-])(=S)OC2=CC=C(CC(C)C(CCC)C(C)CCC)C=C2)C=C1,0,G1,A,UVCB,None,Negative
A-2462,"InChI=1S/3C8H16O2.Cr/c3*1-3-5-6-7(4-2)8(9)10;/h3*7H,3-6H2,1-2H3,(H,9,10);/q;;;+3/p-3",-3.019941271,CCCCC(CC)C([O-])=O,0,G1,A,mono-constituent,None,Negative
A-2463,"InChI=1S/C22H18O11/c23-10-5-12(24)11-7-18(33-22(31)9-3-15(27)20(30)16(28)4-9)21(32-17(11)6-10)8-1-13(25)19(29)14(26)2-8/h1-6,18,21,23-30H,7H2/t18-,21-/m1/s1",-1.059160932,OC1=CC(O)=C2CC(OC(=O)C3=CC(O)=C(O)C(O)=C3)C(OC2=C1)C1=CC(O)=C(O)C(O)=C1,0,G1,A,None,Non Valid pH,Uncharged
A-2464,"InChI=1S/C20H40O/c1-3-5-6-7-8-9-10-11-12-13-14-15-16-17-18-19-20-21-4-2/h5-6H,3-4,7-20H2,1-2H3/b6-5+",-4.799983961,CCOCCCCCCCCCCCCCCC=CCC,0.345474868,G3,A,UVCB,None,Uncharged
A-2465,"InChI=1S/C8H5ClFN/c9-7-2-1-6(3-4-11)8(10)5-7/h1-2,5H,3H2",-2.59390625,FC1=CC(Cl)=CC=C1CC#N,0,G1,A,mono-constituent,None,Uncharged
A-2466,"InChI=1S/C13H17N/c1-11(9-13(2,3)10-14)12-7-5-4-6-8-12/h4-8,11H,9H2,1-3H3",-3.235078816,CC(CC(C)(C)C#N)C1=CC=CC=C1,0,G1,A,mono-constituent,None,Uncharged
A-2467,"InChI=1S/C12H22O2/c1-9(13)14-11-7-5-10(6-8-11)12(2,3)4/h10-11H,5-8H2,1-4H3",-3.699640669,CC(=O)OC1CCC(CC1)C(C)(C)C,0.523733416,G2,A,multi-constituent,None,Uncharged
A-2470,"InChI=1S/C19H30O2/c1-18-9-7-13(20)11-12(18)3-4-14-15-5-6-17(21)19(15,2)10-8-16(14)18/h12,14-17,21H,3-11H2,1-2H3/t12-,14-,15-,16-,17-,18-,19-/m0/s1",-4.918998851,CC12CCC3C(CCC4CC(=O)CCC34C)C1CCC2O,2.588049425,G2,A,mono-constituent,Non Valid pH,Uncharged
A-2471,"InChI=1S/C27H36N4O2/c32-26(28-22-7-3-1-4-8-22)30-24-15-11-20(12-16-24)19-21-13-17-25(18-14-21)31-27(33)29-23-9-5-2-6-10-23/h11-18,22-23H,1-10,19H2,(H2,28,30,32)(H2,29,31,33)",-5.142667396,O=C(NC1CCCCC1)NC1=CC=C(CC2=CC=C(NC(=O)NC3CCCCC3)C=C2)C=C1,0,G1,A,mono-constituent,None,Uncharged
A-2473,"InChI=1S/C18H12N4O4/c1-11-3-5-13(7-15(11)19-9-23)21-17(25)22(18(21)26)14-6-4-12(2)16(8-14)20-10-24/h3-8H,1-2H3",-5.03682594,CC1=CC=C(C=C1N=C=O)N1C(=O)N(C1=O)C1=CC=C(C)C(=C1)N=C=O,0,G1,A,None,None,Uncharged
A-2474,"InChI=1S/C18H34O6/c1-2-3-4-5-6-7-8-9-10-11-16(21)23-13-15(20)18-17(22)14(19)12-24-18/h14-15,17-20,22H,2-13H2,1H3/t14-,15?,17+,18-/m1/s1",-5.06253686,CCCCCCCCCCCC(=O)OCC(O)C1OCC(O)C1O,0,G1,A,None,Multi-constituent Substances,Uncharged
A-2476,"InChI=1S/C21H20N6O7/c1-13(28)23-19-9-15(26(11-20(29)33-2)12-21(30)34-3)4-7-18(19)25-24-17-6-5-16(27(31)32)8-14(17)10-22/h4-9H,11-12H2,1-3H3,(H,23,28)",-5.193519738,COC(=O)CN(CC(=O)OC)C1=CC=C(N=NC2=CC=C(C=C2C#N)[N+]([O-])=O)C(NC(C)=O)=C1,0,G1,A,None,None,PureChargeSeparation
A-2477,InChI=1S/Cu.HI/h;1H/q+1;/p-1,-5.978750981,[I-],0,G1,A,None,None,Negative
A-2478,"InChI=1S/C18H18N8/c19-11-4-6-17(15(21)8-11)25-23-13-2-1-3-14(10-13)24-26-18-7-5-12(20)9-16(18)22/h1-10H,19-22H2",-4.197152695,NC1=CC=C(N=NC2=CC(=CC=C2)N=NC2=CC=C(N)C=C2N)C(N)=C1,0,G1,A,mono-constituent,Non Valid pH,Uncharged
A-2479,"InChI=1S/2C7H16.2C6H14/c1-5-7(4)6(2)3;1-4-6-7(3)5-2;1-4-5-6(2)3;1-4-6(3)5-2/h6-7H,5H2,1-4H3;7H,4-6H2,1-3H3;2*6H,4-5H2,1-3H3",-3.270406298,CCCC(C)CC,0.4312301,G5,A,None,Multi-constituent Substances,Uncharged
A-2481,"InChI=1S/C5H10/c1-3-5-4-2/h3,5H,4H2,1-2H3/b5-3+",-2.544904806,CCC=CC,0.4312301,G5,A,UVCB,None,Uncharged
A-2482,InChI=1S/H2S/h1H2,-5.532537815,[SH-],3.16871879,G4,A,mono-constituent,None,Negative
A-2483,"InChI=1S/C20H18N6O4S/c1-14(27)30-12-11-25(10-2-9-21)16-5-3-15(4-6-16)23-24-20-22-18-8-7-17(26(28)29)13-19(18)31-20/h3-8,13H,2,10-12H2,1H3",-4.340908898,CC(=O)OCCN(CCC#N)C1=CC=C(C=C1)N=NC1=NC2=CC=C(C=C2S1)[N+]([O-])=O,0.731095551,G2,A,mono-constituent,None,PureChargeSeparation
A-2484,"InChI=1S/C24H16N2/c25-17-23-7-3-1-5-21(23)15-13-19-9-11-20(12-10-19)14-16-22-6-2-4-8-24(22)18-26/h1-16H/b15-13+,16-14+",-4.220638859,N#CC1=CC=CC=C1C=CC1=CC=C(C=CC2=CC=CC=C2C#N)C=C1,0,G1,A,mono-constituent,Below LoD Below LoQ,Uncharged
A-2485,"InChI=1S/C18H15ClN6O2/c19-17-13-16(25(26)27)7-8-18(17)23-22-14-3-5-15(6-4-14)24(11-1-9-20)12-2-10-21/h3-8,13H,1-2,11-12H2",-4.281954413,[O-][N+](=O)C1=CC=C(N=NC2=CC=C(C=C2)N(CCC#N)CCC#N)C(Cl)=C1,0,G1,A,mono-constituent,None,PureChargeSeparation
A-2486,"InChI=1S/C19H19N5O4/c1-15(25)28-14-13-23(12-2-11-20)18-7-3-16(4-8-18)21-22-17-5-9-19(10-6-17)24(26)27/h3-10H,2,12-14H2,1H3",-4.280341584,CC(=O)OCCN(CCC#N)C1=CC=C(C=C1)N=NC1=CC=C(C=C1)[N+]([O-])=O,0,G1,A,mono-constituent,None,PureChargeSeparation
A-2487,"InChI=1S/C17H15Br2N5O2/c1-2-23(9-3-8-20)13-6-4-12(5-7-13)21-22-17-15(18)10-14(24(25)26)11-16(17)19/h4-7,10-11H,2-3,9H2,1H3",-4.381248689,CCN(CCC#N)C1=CC=C(C=C1)N=NC1=C(Br)C=C(C=C1Br)[N+]([O-])=O,0,G1,A,mono-constituent,Non Valid pH,PureChargeSeparation
A-2488,"InChI=1S/C17H16ClN5O2/c1-2-22(11-3-10-19)14-6-4-13(5-7-14)20-21-17-9-8-15(23(24)25)12-16(17)18/h4-9,12H,2-3,11H2,1H3",-4.252611554,CCN(CCC#N)C1=CC=C(C=C1)N=NC1=CC=C(C=C1Cl)[N+]([O-])=O,0,G1,A,mono-constituent,Non Valid pH,PureChargeSeparation
A-2489,"InChI=1S/C21H21ClN6O6/c1-5-7-26(8-6-2)18-11-16(23-13(3)29)17(12-20(18)34-4)24-25-21-15(22)9-14(27(30)31)10-19(21)28(32)33/h5-6,9-12H,1-2,7-8H2,3-4H3,(H,23,29)",-4.388179382,COC1=CC(N=NC2=C(Cl)C=C(C=C2[N+]([O-])=O)[N+]([O-])=O)=C(NC(C)=O)C=C1N(CC=C)CC=C,0,G1,A,mono-constituent,None,PureChargeSeparation
A-2490,"InChI=1S/C19H15ClF3NO7/c1-3-29-17(25)10(2)30-18(26)13-9-12(5-6-15(13)24(27)28)31-16-7-4-11(8-14(16)20)19(21,22)23/h4-10H,3H2,1-2H3",-6.623038672,CCOC(=O)C(C)OC(=O)C1=CC(OC2=CC=C(C=C2Cl)C(F)(F)F)=CC=C1[N+]([O-])=O,0.020680664,G3,A,mono-constituent,None,PureChargeSeparation
A-2491,"InChI=1S/C22H34O3/c1-13-11-16(24)12-15-5-6-17-18-7-8-20(25-14(2)23)21(18,3)10-9-19(17)22(13,15)4/h13,15,17-20H,5-12H2,1-4H3/t13-,15-,17-,18-,19-,20-,21-,22-/m0/s1",-5.092558995,CC1CC(=O)CC2CCC3C4CCC(OC(C)=O)C4(C)CCC3C12C,0,G1,A,mono-constituent,Non Valid pH,Uncharged
A-2493,"InChI=1S/C25H50O4/c1-2-3-4-5-6-7-8-9-10-11-12-13-14-15-16-17-18-19-20-21-25(28)29-23-24(27)22-26/h24,26-27H,2-23H2,1H3",-6.91873366,CCCCCCCCCCCCCCCCCCCCCC(=O)OCC(O)CO,0,G1,A,UVCB,None,Uncharged
A-2494,InChI=1S/C4H9/c1-4(2)3/h1-3H3,-4.376546543,C[C](C)C,0,G1,A,mono-constituent,None,Uncharged
A-2495,InChI=1S/Mo.2H2O.2O/h;2*1H2;;/q+2;;;;/p-2,-2.379760962,[O-][Mo]([O-])(=O)=O,0,G1,A,mono-constituent,Non Valid pH,Negative
A-2497,"InChI=1S/2C4H8/c2*1-3-4-2/h3-4H,1-2H3;3H,1,4H2,2H3/b4-3+;",-4.669843542,CC=CC,0.190105621,G3,A,UVCB,None,Uncharged
A-2498,"InChI=1S/C9H18O2.C7H14O2.C5H12O4.C5H10O2/c1-2-3-4-5-6-7-8-9(10)11;1-2-3-4-5-6-7(8)9;6-1-5(2-7,3-8)4-9;1-2-3-4-5(6)7/h2-8H2,1H3,(H,10,11);2-6H2,1H3,(H,8,9);6-9H,1-4H2;2-4H2,1H3,(H,6,7)",-5.418373857,CCCCCCCCC([O-])=O,0.086431145,G3,A,None,Multi-constituent Substances,Negative
A-2500,"InChI=1S/C23H25BrN6O10/c1-13(31)25-18-11-20(28(5-7-39-14(2)32)6-8-40-15(3)33)22(38-4)12-19(18)26-27-23-17(24)9-16(29(34)35)10-21(23)30(36)37/h9-12H,5-8H2,1-4H3,(H,25,31)",-5.495120243,COC1=CC(N=NC2=C(Br)C=C(C=C2[N+]([O-])=O)[N+]([O-])=O)=C(NC(C)=O)C=C1N(CCOC(C)=O)CCOC(C)=O,1.292513326,G2,A,mono-constituent,None,PureChargeSeparation
A-2504,"InChI=1S/C10H14O2/c1-10(2,3)8-6-7(11)4-5-9(8)12/h4-6,11-12H,1-3H3",-1.220683278,CC(C)(C)C1=CC(O)=CC=C1O,0,G1,A,mono-constituent,None,Uncharged
A-2505,"InChI=1S/C7H8N2O3/c1-12-5-2-3-6(8)7(4-5)9(10)11/h2-4H,8H2,1H3",-1.225702037,COC1=CC=C(N)C(=C1)[N+]([O-])=O,0.960398981,G2,A,mono-constituent,None,PureChargeSeparation
A-2506,"InChI=1S/C14H26O2/c1-6-15-14(16-7-2)11-13(5)10-8-9-12(3)4/h9,11,14H,6-8,10H2,1-5H3/b13-11+",-2.354799685,CCOC(OCC)C=C(C)CCC=C(C)C,0,G1,A,mono-constituent,None,Uncharged
A-2507,"InChI=1S/C7H6N2S/c10-7-8-5-3-1-2-4-6(5)9-7/h1-4H,(H2,8,9,10)",-2.176687281,S=C1NC2=CC=CC=C2N1,0.383720328,G5,A,mono-constituent,None,Uncharged
A-2510,"InChI=1S/C12H26O/c1-3-5-7-9-11-13-12-10-8-6-4-2/h3-12H2,1-2H3",-4.270303761,CCCCCCOCCCCCC,0,G1,A,mono-constituent,None,Uncharged
A-2511,"InChI=1S/C20H20N6O3/c21-11-1-13-25(14-16-29-15-2-12-22)19-7-3-17(4-8-19)23-24-18-5-9-20(10-6-18)26(27)28/h3-10H,1-2,13-16H2",-4.593750027,[O-][N+](=O)C1=CC=C(C=C1)N=NC1=CC=C(C=C1)N(CCOCCC#N)CCC#N,0,G1,A,mono-constituent,Non Valid pH,PureChargeSeparation
A-2512,"InChI=1S/C132H250N32/c1-49-57-71-157(97-81-117(9,10)147(41)118(11,12)82-97)109-135-105(136-110(143-109)158(72-58-50-2)98-83-119(13,14)148(42)120(15,16)84-98)133-67-65-69-155(107-139-113(161(75-61-53-5)101-89-125(25,26)151(45)126(27,28)90-101)145-114(140-107)162(76-62-54-6)102-91-127(29,30)152(46)128(31,32)92-102)79-80-156(108-141-115(163(77-63-55-7)103-93-129(33,34)153(47)130(35,36)94-103)146-116(142-108)164(78-64-56-8)104-95-131(37,38)154(48)132(39,40)96-104)70-66-68-134-106-137-111(159(73-59-51-3)99-85-121(17,18)149(43)122(19,20)86-99)144-112(138-106)160(74-60-52-4)100-87-123(21,22)150(44)124(23,24)88-100/h97-104H,49-96H2,1-48H3,(H,133,135,136,143)(H,134,137,138,144)",-5.359014668,CCCCN(C1CC(C)(C)[NH+](C)C(C)(C)C1)C1=NC(=[NH+]C(NCCCN(CCN(CCCNC2=[NH+]C(=NC(=N2)N(CCCC)C2CC(C)(C)[NH+](C)C(C)(C)C2)N(CCCC)C2CC(C)(C)[NH+](C)C(C)(C)C2)C2=NC(=NC(=[NH+]2)N(CCCC)C2CC(C)(C)[NH+](C)C(C)(C)C2)N(CCCC)C2CC(C)(C)[NH+](C)C(C)(C)C2)C2=[NH+]C(=NC(=[NH+]2)N(CCCC)C2CC(C)(C)[NH+](C)C(C)(C)C2)N(CCCC)C2CC(C)(C)[NH+](C)C(C)(C)C2)=N1)N(CCCC)C1CC(C)(C)[NH+](C)C(C)(C)C1,0.349485002,G3,A,mono-constituent,Prediction Estimation,Positive
A-2513,"InChI=1S/C19H21ClN6O6/c1-5-24(6-2)16-9-14(21-11(3)27)15(10-18(16)32-4)22-23-19-13(20)7-12(25(28)29)8-17(19)26(30)31/h7-10H,5-6H2,1-4H3,(H,21,27)",-4.667327783,CCN(CC)C1=CC(NC(C)=O)=C(C=C1OC)N=NC1=C(Cl)C=C(C=C1[N+]([O-])=O)[N+]([O-])=O,0,G1,A,mono-constituent,None,PureChargeSeparation
A-2514,"InChI=1S/C10H18/c1-2-6-10-8-4-3-7-9(10)5-1/h9-10H,1-8H2",-4.140677705,C1CCC2CCCCC2C1,0.904310192,G4,A,mono-constituent,None,Uncharged
A-2515,"InChI=1S/C4H4O4.2C4H9.Sn/c5-3(6)1-2-4(7)8;2*1-3-4-2;/h1-2H,(H,5,6)(H,7,8);2*1,3-4H2,2H3;/q;;;+2/p-2/b2-1+;;;",-4.540328223,[O-]C(=O)C=CC([O-])=O.CCCC[Sn++]CCCC,0,G1,A,None,Multi-constituent Substances,Negative
A-2516,"InChI=1S/C4H6O2.H2O.Zn/c1-3(2)4(5)6;;/h1H2,2H3,(H,5,6);1H2;/q;;+2/p-2",-4.223960359,CC(=C)C(=O)O[Zn]O,0,G1,A,mono-constituent,None,Uncharged
A-2517,"InChI=1S/C39H72O4/c1-4-6-8-10-12-14-16-18-20-22-24-26-28-30-32-34-38(40)42-36-37(3)43-39(41)35-33-31-29-27-25-23-21-19-17-15-13-11-9-7-5-2/h18-21,37H,4-17,22-36H2,1-3H3/b20-18-,21-19-",-4.781756093,CCCCCCCCC=CCCCCCCCC(=O)OCC(C)OC(=O)CCCCCCCC=CCCCCCCCC,0,G1,A,None,Prediction Estimation,Uncharged
A-2519,"InChI=1S/C54H32N4O6/c59-49-39-7-1-3-9-41(39)51(61)47-43(49)11-5-13-45(47)55-53(63)35-19-15-31(16-20-35)33-23-27-37(28-24-33)57-58-38-29-25-34(26-30-38)32-17-21-36(22-18-32)54(64)56-46-14-6-12-44-48(46)52(62)42-10-4-2-8-40(42)50(44)60/h1-30H,(H,55,63)(H,56,64)",-5.716458279,O=C(NC1=CC=CC2=C1C(=O)C1=CC=CC=C1C2=O)C1=CC=C(C=C1)C1=CC=C(C=C1)N=NC1=CC=C(C=C1)C1=CC=C(C=C1)C(=O)NC1=CC=CC2=C1C(=O)C1=CC=CC=C1C2=O,0,G1,A,mono-constituent,None,Uncharged
A-2520,"InChI=1S/C16H16/c1-2-14-4-3-13(1)9-10-15-5-7-16(8-6-15)12-11-14/h1-8H,9-12H2",-5.169478497,C1CC2=CC=C(CCC3=CC=C1C=C3)C=C2,0,G1,A,mono-constituent,None,Uncharged
A-2521,InChI=1S/C34H16O2/c35-33-25-7-3-1-5-17(25)19-9-11-21-22-12-10-20-18-6-2-4-8-26(18)34(36)28-16-14-24(30(22)32(20)28)23-13-15-27(33)31(19)29(21)23/h1-16H,-5.513312746,O=C1C2=CC=CC=C2C2=C3C1=CC=C1C4=C5C(=CC=C6C7=CC=CC=C7C(=O)C(C=C4)=C56)C(C=C2)=C31,0,G1,A,mono-constituent,None,Uncharged
A-2525,"InChI=1S/C36H20O4/c1-39-27-15-25-17-7-3-5-9-21(17)35(37)23-13-11-19-20-12-14-24-30-26(18-8-4-6-10-22(18)36(24)38)16-28(40-2)34(32(20)30)33(27)31(19)29(23)25/h3-16H,1-2H3",-5.599170695,COC1=CC2=C3C(=CC=C4C5=C6C(=C(OC)C=C7C8=CC=CC=C8C(=O)C(C=C5)=C67)C1=C34)C(=O)C1=CC=CC=C21,0,G1,A,mono-constituent,None,Uncharged
A-2526,"InChI=1S/C12H26O/c1-3-5-6-9-12(8-4-2)10-7-11-13/h12-13H,3-11H2,1-2H3/t12-/m0/s1",-5.156360408,CCCCCC(CCC)CCCO,0.105426683,G3,A,None,None,Uncharged
A-2528,"InChI=1S/C14H28O4/c1-12(2,3)15-17-14(10-8-7-9-11-14)18-16-13(4,5)6/h7-11H2,1-6H3",-5.386213837,CC(C)(C)OOC1(CCCCC1)OOC(C)(C)C,0.014691889,G3,A,mono-constituent,Unstable,Uncharged
A-2532,"InChI=1S/C36H60O2/c1-7-8-9-10-11-12-13-14-15-16-17-18-19-25-35(37)38-30-28-32(3)23-20-22-31(2)26-27-34-33(4)24-21-29-36(34,5)6/h20,22-23,26-28H,7-19,21,24-25,29-30H2,1-6H3/b23-20+,27-26+,31-22+,32-28+",-5.72005506,CCCCCCCCCCCCCCCC(=O)OCC=C(C)C=CC=C(C)C=CC1=C(C)CCCC1(C)C,0,G1,A,mono-constituent,None,Uncharged
A-2535,"InChI=1S/C15H12F3NO4/c1-9(14(20)21)22-11-3-5-12(6-4-11)23-13-7-2-10(8-19-13)15(16,17)18/h2-9H,1H3,(H,20,21)/t9-/m1/s1",-2.622795669,CC(OC1=CC=C(OC2=CC=C(C=N2)C(F)(F)F)C=C1)C([O-])=O,0.513491745,G2,A,mono-constituent,Cosolvent Buffer,Negative
A-2537,"InChI=1S/C16H32O4/c1-7-14(3,4)17-19-16(12-10-9-11-13-16)20-18-15(5,6)8-2/h7-13H2,1-6H3",-5.460037419,CCC(C)(C)OOC1(CCCCC1)OOC(C)(C)CC,0.50464406,G4,A,mono-constituent,Unstable,Uncharged
A-2538,"InChI=1S/C12H15N/c1-9-8-12(2,3)13-11-7-5-4-6-10(9)11/h4-8,13H,1-3H3",-5.238695804,CC1=CC(C)(C)NC2=CC=CC=C12,0.472142875,G5,A,UVCB,Non Valid pH,Uncharged
A-2540,"InChI=1S/C8H17Cl/c1-2-3-4-5-6-7-8-9/h2-8H2,1H3",-5.172243789,CCCCCCCCCl,0.34465443,G3,A,mono-constituent,Non Valid pH,Uncharged
A-2541,"InChI=1S/C14H42O5Si6/c1-20(2,3)15-22(7,8)17-24(11,12)19-25(13,14)18-23(9,10)16-21(4,5)6/h1-14H3",-5.661813632,C[Si](C)(C)O[Si](C)(C)O[Si](C)(C)O[Si](C)(C)O[Si](C)(C)O[Si](C)(C)C,0,G1,A,mono-constituent,None,Uncharged