ID,InChI,Solubility,SMILEScurated,SD,Group,Dataset,Composition,Error,Charge
A-6055,"InChI=1S/C14H32O3Si/c1-8-15-18(16-9-2,17-10-3)12-13(4)11-14(5,6)7/h13H,8-12H2,1-7H3",-6.441684141,CCO[Si](CC(C)CC(C)(C)C)(OCC)OCC,0,G1,A,None,None,Uncharged
A-6056,"InChI=1S/C44H34Cl2N6O4/c1-23-13-15-29(45)21-37(23)49-51-39-31-11-7-5-9-27(31)19-33(41(39)53)43(55)47-35-17-26(4)36(18-25(35)3)48-44(56)34-20-28-10-6-8-12-32(28)40(42(34)54)52-50-38-22-30(46)16-14-24(38)2/h5-22,49-50H,1-4H3,(H,47,55)(H,48,56)/b51-39-,52-40+",-7.678196264,CC1=CC(NC(=O)C2=CC3=CC=CC=C3C(N=NC3=CC(Cl)=CC=C3C)=C2O)=C(C)C=C1NC(=O)C1=CC2=CC=CC=C2C(N=NC2=CC(Cl)=CC=C2C)=C1O,0,G1,A,None,None,Uncharged
A-6057,"InChI=1S/C37H21N5O4/c43-31-21-12-4-6-14-23(21)33(45)29-25(31)16-8-18-27(29)38-36-40-35(20-10-2-1-3-11-20)41-37(42-36)39-28-19-9-17-26-30(28)34(46)24-15-7-5-13-22(24)32(26)44/h1-19H,(H2,38,39,40,41,42)",-7.77786597,O=C1C2=CC=CC=C2C(=O)C2=C(NC3=NC(NC4=CC=CC5=C4C(=O)C4=CC=CC=C4C5=O)=NC(=N3)C3=CC=CC=C3)C=CC=C12,0,G1,A,None,None,Uncharged
A-6058,"InChI=1S/C16H11N5O4/c1-18-13(22)9(6-17)11-7-4-2-3-5-8(7)12(19-11)10-14(23)20-16(25)21-15(10)24/h2-5,19H,1H3,(H,18,22)(H2,20,21,23,24,25)/b11-9-",-7.528009903,CNC(=O)C(C#N)=C1N=C(C2=CC=CC=C12)C1=C(O)NC(=O)NC1=O,0,G1,A,None,None,Uncharged
A-6059,"InChI=1S/C17H11ClN6O3/c1-9-15(21-20-13-7-6-10(18)8-14(13)24(26)27)16-19-12-5-3-2-4-11(12)17(25)23(16)22-9/h2-8,20H,1H3/b21-15+",-7.582934488,CC1=NN2C(NC3=CC=CC=C3C2=O)=C1N=NC1=CC=C(Cl)C=C1[N+]([O-])=O,0,G1,A,None,None,PureChargeSeparation
A-6060,"InChI=1S/C16H9N5O6/c22-11-7(12(23)19-15(26)18-11)9-5-3-1-2-4-6(5)10(17-9)8-13(24)20-16(27)21-14(8)25/h1-4,17H,(H2,18,19,22,23,26)(H2,20,21,24,25,27)",-7.564993732,OC1=C(C2=NC(C3=CC=CC=C23)=C2C(=O)NC(=O)[N-]C2=O)C(=O)NC(=O)N1,0.637114662,G4,A,None,None,Negative
A-6062,"InChI=1S/C22H32O2/c1-17(9-7-10-18(2)14-16-24-20(4)23)12-13-21-19(3)11-8-15-22(21,5)6/h7,9-10,12-14H,8,11,15-16H2,1-6H3/b10-7+,13-12+,17-9+,18-14+",-7.516530086,CC(=O)OCC=C(C)C=CC=C(C)C=CC1=C(C)CCCC1(C)C,0,G1,A,None,None,Uncharged
A-6063,"InChI=1S/C23H34O2/c1-7-22(24)25-17-15-19(3)11-8-10-18(2)13-14-21-20(4)12-9-16-23(21,5)6/h8,10-11,13-15H,7,9,12,16-17H2,1-6H3/b11-8+,14-13+,18-10+,19-15+",-7.534689739,CCC(=O)OCC=C(C)C=CC=C(C)C=CC1=C(C)CCCC1(C)C,0,G1,A,None,None,Uncharged
A-6065,"InChI=1S/C21H14N2O6S.Mn/c24-19-16(21(25)26)11-13-6-2-3-7-14(13)18(19)23-22-17-10-9-12-5-1-4-8-15(12)20(17)30(27,28)29;/h1-11,24H,(H,25,26)(H,27,28,29);/q;+2/p-2",-7.677004362,OC1=C(N=NC2=C(C3=CC=CC=C3C=C2)S([O-])(=O)=O)C2=CC=CC=C2C=C1C([O-])=O,0,G1,A,None,None,Negative
A-6068,"InChI=1S/C45H86O6/c1-4-7-10-13-16-19-22-25-28-31-34-37-43(46)49-40-42(51-45(48)39-36-33-30-27-24-21-18-15-12-9-6-3)41-50-44(47)38-35-32-29-26-23-20-17-14-11-8-5-2/h42H,4-41H2,1-3H3",-8.647057001,CCCCCCCCCCCCCC(=O)OCC(COC(=O)CCCCCCCCCCCCC)OC(=O)CCCCCCCCCCCCC,0,G1,A,None,None,Uncharged
A-6069,InChI=1S/Be.O,-7.255116256,[Be]=O,0,G1,A,None,None,Uncharged
A-6070,"InChI=1S/C20H32/c1-3-5-6-8-18-11-15-20(16-12-18)19-13-9-17(7-4-2)10-14-19/h9-10,13-14,18,20H,3-8,11-12,15-16H2,1-2H3",-6.772570424,CCCCCC1CCC(CC1)C1=CC=C(CCC)C=C1,0,G1,A,None,None,Uncharged
A-6071,"InChI=1S/C22H29N3O/c1-7-21(3,4)15-13-16(22(5,6)8-2)20(26)19(14-15)25-23-17-11-9-10-12-18(17)24-25/h9-14,26H,7-8H2,1-6H3",-8.545917916,CCC(C)(C)C1=CC(N2N=C3C=CC=CC3=N2)=C(O)C(=C1)C(C)(C)CC,0,G1,A,None,Below LoD Below LoQ,Uncharged
A-6072,"InChI=1S/C20H20Cl2N8O4/c1-9(31)17(19(33)25-23)29-27-12-4-5-13(14(21)8-12)11-3-6-16(15(22)7-11)28-30-18(10(2)32)20(34)26-24/h3-8,17-18H,23-24H2,1-2H3,(H,25,33)(H,26,34)",-8.705297393,CC(=O)C(=N[N-]C1=CC=C(C(Cl)=C1)C1=CC=C([N-]N=C(C(C)=O)C(=O)NN)C(Cl)=C1)C(=O)NN,0,G1,A,None,None,Negative
A-6074,"InChI=1S/C42H18N2O6/c45-37-21-5-1-3-7-23(21)39(47)29-25(37)13-9-17-19-11-15-27-31(35(19)43-33(17)29)41(49)28-16-12-20-18-10-14-26-30(34(18)44-36(20)32(28)42(27)50)40(48)24-8-4-2-6-22(24)38(26)46/h1-16,43-44H",-8.810645103,O=C1C2=CC=CC=C2C(=O)C2=C1C=CC1=C2NC2=C1C=CC1=C2C(=O)C2=C(C3=C(C=C2)C2=C(N3)C3=C(C=C2)C(=O)C2=CC=CC=C2C3=O)C1=O,0,G1,A,None,None,Uncharged
A-6075,InChI=1S/2Al.2Co.5O/q2*+3;2*+2;5*-2,-8.401098843,O.O.O.O.O.[Al+3].[Al+3].[Co++].[Co++],0.327313765,G5,A,None,None,Uncharged
A-6076,InChI=1S/Bi.4O.V/q+3;4*-2;,-8.510435082,O,0,G1,A,None,None,Uncharged
A-6078,InChI=1S/2Fe.H2O.3O/h;;1H2;;;/q2*+3;;3*-2,-8.249692316,O.O.O.[Fe+3].[Fe+3],0,G1,A,None,None,Uncharged
A-6079,"InChI=1S/C16H30O2/c1-4-5-6-7-8-9-10-11-12-13-14-18-16(17)15(2)3/h2,4-14H2,1,3H3",-8.405541006,CCCCCCCCCCCCOC(=O)C(C)=C,0,G1,A,None,Below LoD Below LoQ,Uncharged
A-6080,InChI=1S/Nb,-7.968043762,[Nb],0.848957597,G4,A,None,None,Uncharged
A-6081,"InChI=1S/C22H42O2/c1-4-5-6-7-8-9-10-11-12-13-14-15-16-17-18-19-20-24-22(23)21(2)3/h2,4-20H2,1,3H3",-8.52965617,CCCCCCCCCCCCCCCCCCOC(=O)C(C)=C,0,G1,A,None,None,Uncharged
A-6085,"InChI=1S/C20H12N2O6/c23-13-8-6-11(21-10-4-2-1-3-5-10)15-17(13)20(26)18-14(24)9-7-12(22(27)28)16(18)19(15)25/h1-9,21,23-24H",-8.646142991,OC1=CC=C(NC2=CC=CC=C2)C2=C1C(=O)C1=C(C2=O)C(=CC=C1[O-])[N+]([O-])=O,0,G1,A,None,None,Negative
A-6086,"InChI=1S/C6H6O4S.Na/c7-5-1-3-6(4-2-5)11(8,9)10;/h1-4,7H,(H,8,9,10);/q;+1/p-1",-8.363189313,OC1=CC=C(C=C1)S([O-])(=O)=O,0,G1,A,None,None,Negative
A-6087,"InChI=1S/C32H64O2/c1-3-5-7-9-11-13-15-17-19-21-23-25-27-29-31-34-32(33)30-28-26-24-22-20-18-16-14-12-10-8-6-4-2/h3-31H2,1-2H3",-8.754650095,CCCCCCCCCCCCCCCCOC(=O)CCCCCCCCCCCCCCC,0,G1,A,None,None,Uncharged
A-6088,"InChI=1S/C37H46O5/c1-34(2,3)22-13-15-28(24(19-22)30-25-20-23(35(4,5)6)14-16-29(25)42-33(30)40)41-32(39)21-17-26(36(7,8)9)31(38)27(18-21)37(10,11)12/h13-20,30,38H,1-12H3",-8.848512617,CC(C)(C)C1=CC=C2OC(=O)C(C2=C1)C1=CC(=CC=C1OC(=O)C1=CC(=C(O)C(=C1)C(C)(C)C)C(C)(C)C)C(C)(C)C,0,G1,A,None,None,Uncharged
A-6089,"InChI=1S/2C8H16O2.Zr/c2*1-3-5-6-7(4-2)8(9)10;/h2*7H,3-6H2,1-2H3,(H,9,10);/q;;+2/p-2",-8.702012126,CCCCC(CC)C([O-])=O,0.276420984,G3,A,None,None,Negative
A-6091,"InChI=1S/C20H16N4O5S/c1-13-17(12-21)19(25)24(2)20(26)18(13)23-22-14-7-6-8-15(11-14)29-30(27,28)16-9-4-3-5-10-16/h3-11,22H,1-2H3/b23-18-",-8.782716219,CN1C(=O)C(=NNC2=CC=CC(OS(=O)(=O)C3=CC=CC=C3)=C2)C(C)=C(C#N)C1=O,0,G1,A,None,None,Uncharged
A-6092,InChI=1S/Be,-7.255851179,[Be],0,G1,A,None,None,Uncharged
A-6094,"InChI=1S/C37H68O8/c1-9-17-21-29(13-5)33(38)42-25-37(26-43-34(39)30(14-6)22-18-10-2,27-44-35(40)31(15-7)23-19-11-3)28-45-36(41)32(16-8)24-20-12-4/h29-32H,9-28H2,1-8H3",-9.204759418,CCCCC(CC)C(=O)OCC(COC(=O)C(CC)CCCC)(COC(=O)C(CC)CCCC)COC(=O)C(CC)CCCC,0,G1,A,None,None,Uncharged
A-6095,InChI=1S/Au,-8.817272216,[Au],0,G1,A,None,None,Uncharged
A-6098,"InChI=1S/C36H70O3P/c1-3-5-7-9-11-13-15-17-19-21-23-25-27-29-31-33-35-38-40(37)39-36-34-32-30-28-26-24-22-20-18-16-14-12-10-8-6-4-2/h17-20H,3-16,21-36H2,1-2H3/q+1/b19-17+,20-18+",-9.534419587,CCCCCCCCC=CCCCCCCCCO[P+](=O)OCCCCCCCCC=CCCCCCCCC,0,G1,A,None,None,Positive
A-6100,InChI=1S/Ce.2O,-9.145911087,O=[Ce]=O,0,G1,A,None,None,Uncharged
A-6101,InChI=1S/C12Br10O/c13-1-3(15)7(19)11(8(20)4(1)16)23-12-9(21)5(17)2(14)6(18)10(12)22,-9.98189604,BrC1=C(Br)C(Br)=C(OC2=C(Br)C(Br)=C(Br)C(Br)=C2Br)C(Br)=C1Br,0,G1,A,None,None,Uncharged
A-6105,"InChI=1S/C52H99N5O4/c1-3-5-7-9-11-13-15-17-19-21-23-25-27-29-31-33-35-47-45-49(58)56(51(47)60)43-41-54-39-37-53-38-40-55-42-44-57-50(59)46-48(52(57)61)36-34-32-30-28-26-24-22-20-18-16-14-12-10-8-6-4-2/h47-48,53-55H,3-46H2,1-2H3",-10.23471717,CCCCCCCCCCCCCCCCCCC1CC(=O)N(CC[NH2+]CCNCC[NH2+]CCN2C(=O)CC(CCCCCCCCCCCCCCCCCC)C2=O)C1=O,0,G1,A,None,None,Positive
A-6108,"InChI=1S/C14H12Cl2/c15-9-11-1-5-13(6-2-11)14-7-3-12(10-16)4-8-14/h1-8H,9-10H2",-10.09891356,ClCC1=CC=C(C=C1)C1=CC=C(CCl)C=C1,0,G1,A,None,Non Valid pH,Uncharged
B-1,"InChI=1S/C5H11NO3/c1-3-5(4-2)9-6(7)8/h5H,3-4H2,1-2H3",-2.4522,CCC(CC)O[N+]([O-])=O,0,G1,B,None,None,PureChargeSeparation
B-2,"InChI=1S/C7H5BrO2/c8-6-1-5(4-9)2-7(10)3-6/h1-4,10H",-3.2502,OC1=CC(Br)=CC(C=O)=C1,0,G1,B,None,None,Uncharged
B-3,"InChI=1S/C15H21NO2.ClH/c1-3-18-14(17)15(9-11-16(2)12-10-15)13-7-5-4-6-8-13;/h4-8H,3,9-12H2,1-2H3;1H",-1.6368,CCOC(=O)C1(CC[NH+](C)CC1)C1=CC=CC=C1,0,G1,B,None,None,Positive
B-4,"InChI=1S/C11H15NO3/c1-2-11(14,8-15-10(12)13)9-6-4-3-5-7-9/h3-7,14H,2,8H2,1H3,(H2,12,13)",-0.9227,CCC(O)(COC(N)=O)C1=CC=CC=C1,0,G1,B,None,None,Uncharged
B-5,"InChI=1S/C3H6O3/c1-2(4)3(5)6/h2,4H,1H3,(H,5,6)",1.0454,CC(O)C([O-])=O,0,G1,B,None,None,Negative
B-6,"InChI=1S/C18H24O2/c1-18-9-8-14-13-5-3-12(19)10-11(13)2-4-15(14)16(18)6-7-17(18)20/h3,5,10,14-17,19-20H,2,4,6-9H2,1H3/t14-,15-,16+,17+,18+/m1/s1",-4.8789,CC12CCC3C(CCC4=CC(O)=CC=C34)C1CCC2O,0.190098356,G3,B,None,None,Uncharged
B-7,"InChI=1S/C7H4Cl2O2/c8-4-2-1-3-5(9)6(4)7(10)11/h1-3H,(H,10,11)",-1.1309,[O-]C(=O)C1=C(Cl)C=CC=C1Cl,0,G1,B,None,None,Negative
B-8,"InChI=1S/C7H3Cl3O2/c8-3-1-2-4(9)6(10)5(3)7(11)12/h1-2H,(H,11,12)",-1.4666,[O-]C(=O)C1=C(Cl)C=CC(Cl)=C1Cl,0.0183,G3,B,None,None,Negative
B-9,"InChI=1S/C13H10N2O4/c16-10-6-5-9(11(17)14-10)15-12(18)7-3-1-2-4-8(7)13(15)19/h1-4,9H,5-6H2,(H,14,16,17)",-2.6758,O=C1N(C2CCC(=O)NC2=O)C(=O)C2=CC=CC=C12,0.5121,G2,B,None,None,Uncharged
B-13,"InChI=1S/C33H40N2O9/c1-38-19-7-8-20-21-9-10-35-16-18-13-27(44-32(36)17-11-25(39-2)30(41-4)26(12-17)40-3)31(42-5)28(33(37)43-6)22(18)15-24(35)29(21)34-23(20)14-19/h7-8,11-12,14,18,22,24,27-28,31,34H,9-10,13,15-16H2,1-6H3/t18-,22+,24-,27-,28+,31+/m1/s1",-3.9208,COC1C(CC2C[NH+]3CCC4=C(NC5=CC(OC)=CC=C45)C3CC2C1C(=O)OC)OC(=O)C1=CC(OC)=C(OC)C(OC)=C1,0,G1,B,None,None,Positive
B-14,"InChI=1S/C13H8Cl2N2O4/c14-7-1-4-12(18)9(5-7)13(19)16-11-3-2-8(17(20)21)6-10(11)15/h1-6,18H,(H,16,19)",-5.3106,[O-]C1=CC=C(Cl)C=C1C(=O)NC1=CC=C(C=C1Cl)[N+]([O-])=O,0.610817514,G4,B,None,None,Negative
B-15,"InChI=1S/C10H12N2O/c11-4-3-7-6-12-10-2-1-8(13)5-9(7)10/h1-2,5-6,12-13H,3-4,11H2",-0.945,[NH3+]CCC1=CNC2=CC=C(O)C=C12,0,G1,B,None,None,Positive
B-17,"InChI=1S/C7H3Cl3O2/c8-4-2-6(10)5(9)1-3(4)7(11)12/h1-2H,(H,11,12)",-2.4446,[O-]C(=O)C1=CC(Cl)=C(Cl)C=C1Cl,0,G1,B,None,None,Negative
B-18,"InChI=1S/C7H4Cl2O2/c8-4-1-2-5(7(10)11)6(9)3-4/h1-3H,(H,10,11)",-2.6003,[O-]C(=O)C1=CC=C(Cl)C=C1Cl,0,G1,B,None,None,Negative
B-22,"InChI=1S/C4H3BrN2O2/c5-2-1-6-4(9)7-3(2)8/h1H,(H2,6,7,8,9)",-2.3698,BrC1=CNC(=O)NC1=O,0,G1,B,None,None,Uncharged
B-24,"InChI=1S/C9H13NO3.C4H6O6/c1-10-5-9(13)6-2-3-7(11)8(12)4-6;5-1(3(7)8)2(6)4(9)10/h2-4,9-13H,5H2,1H3;1-2,5-6H,(H,7,8)(H,9,10)/t9-;1-,2-/m01/s1",0,C[NH2+]CC(O)C1=CC=C(O)C(O)=C1,0,G1,B,None,Cosolvent Buffer,Positive
B-25,"InChI=1S/C9H13NO3/c1-10-5-9(13)6-2-3-7(11)8(12)4-6/h2-4,9-13H,5H2,1H3/t9-/m0/s1",-3.0077,C[NH2+]CC(O)C1=CC=C(O)C(O)=C1,0,G1,B,None,None,Positive
B-26,"InChI=1S/C7H10N2OS/c1-2-3-5-4-6(10)9-7(11)8-5/h4H,2-3H2,1H3,(H2,8,9,10,11)",-2.1504,CCCC1=CC(=O)NC(=S)N1,0,G1,B,None,None,Uncharged
B-28,"InChI=1S/C5H11Cl2N/c1-8(4-2-6)5-3-7/h2-5H2,1H3",-1.1141,CN(CCCl)CCCl,0,G1,B,None,None,Uncharged
B-29,"InChI=1S/C22H28O3/c1-4-22(25-14(2)23)12-10-20-19-7-5-15-13-16(24)6-8-17(15)18(19)9-11-21(20,22)3/h1,13,17-20H,5-12H2,2-3H3/t17-,18+,19+,20-,21-,22-/m0/s1",-4.8041,CC(=O)OC1(CCC2C3CCC4=CC(=O)CCC4C3CCC12C)C#C,0,G1,B,None,None,Uncharged
B-30,"InChI=1S/C24H32O4S/c1-14(25)29-19-13-15-12-16(26)4-8-22(15,2)17-5-9-23(3)18(21(17)19)6-10-24(23)11-7-20(27)28-24/h12,17-19,21H,4-11,13H2,1-3H3/t17-,18-,19+,21+,22-,23-,24+/m0/s1",-4.2773,CC(=O)SC1CC2=CC(=O)CCC2(C)C2CCC3(C)C(CCC33CCC(=O)O3)C12,0,G1,B,None,None,Uncharged
B-31,"InChI=1S/C6H12N3PS/c11-10(7-1-2-7,8-3-4-8)9-5-6-9/h1-6H2",0.0018,S=P(N1CC1)(N1CC1)N1CC1,0,G1,B,None,None,Uncharged
B-33,"InChI=1S/C4H8Cl3O4P/c1-10-12(9,11-2)3(8)4(5,6)7/h3,8H,1-2H3",-0.3315,COP(=O)(OC)C(O)C(Cl)(Cl)Cl,0.098061489,G5,B,None,None,Uncharged
B-34,"InChI=1S/C3H7NO2S/c4-2(1-7)3(5)6/h2,7H,1,4H2,(H,5,6)",0.3597,[NH3+]C(CS)C([O-])=O,0,G1,B,None,None,Zwitterion
B-36,"InChI=1S/C14H10Cl4/c15-10-7-5-9(6-8-10)13(14(17)18)11-3-1-2-4-12(11)16/h1-8,13-14H",-6.5052,ClC(Cl)C(C1=CC=C(Cl)C=C1)C1=CC=CC=C1Cl,0,G1,B,None,None,Uncharged
B-40,"InChI=1S/C10H14N2/c1-12-7-3-5-10(12)9-4-2-6-11-8-9/h2,4,6,8,10H,3,5,7H2,1H3/t10-/m0/s1",0.7898,C[NH+]1CCCC1C1=CC=CN=C1,0,G1,B,None,None,Positive
B-42,"InChI=1S/C9H11IN2O5/c10-4-2-12(9(16)11-8(4)15)7-1-5(14)6(3-13)17-7/h2,5-7,13-14H,1,3H2,(H,11,15,16)",-2.2481,OCC1OC(CC1O)N1C=C(I)C(=O)NC1=O,0,G1,B,None,None,Uncharged
B-44,"InChI=1S/C15H17N3/c1-12-5-4-6-14(11-12)17-16-13-7-9-15(10-8-13)18(2)3/h4-11H,1-3H3",-5.7769,CN(C)C1=CC=C(C=C1)N=NC1=CC=CC(C)=C1,0,G1,B,None,None,Uncharged
B-45,"InChI=1S/C6H14FO3P/c1-5(2)9-11(7,8)10-6(3)4/h5-6H,1-4H3",-1.0777,CC(C)OP(F)(=O)OC(C)C,0,G1,B,None,None,Uncharged
B-46,"InChI=1S/C5H6N2OS/c1-3-2-4(8)7-5(9)6-3/h2H,1H3,(H2,6,7,8,9)",-2.4259,CC1=CC(=O)NC(=S)N1,0.00505,G3,B,None,None,Uncharged
B-47,"InChI=1S/C4H9NO2/c5-3-1-2-4(6)7/h1-3,5H2,(H,6,7)",1.1006,[NH3+]CCCC([O-])=O,0,G1,B,None,None,Zwitterion
B-48,"InChI=1S/C10H12O4/c1-9-5-3-4-6(13-5)10(9,2)8(12)14-7(9)11/h5-6H,3-4H2,1-2H3/t5-,6+,9+,10-",-3.8156,CC12C3CCC(O3)C1(C)C(=O)OC2=O,0,G1,B,None,None,Uncharged
B-50,"InChI=1S/C10H16N5O13P3/c11-8-5-9(13-2-12-8)15(3-14-5)10-7(17)6(16)4(26-10)1-25-30(21,22)28-31(23,24)27-29(18,19)20/h2-4,6-7,10,16-17H,1H2,(H,21,22)(H,23,24)(H2,11,12,13)(H2,18,19,20)",0.2948,NC1=C2N=CN(C3OC(COP([O-])(=O)OP([O-])(=O)OP(O)([O-])=O)C(O)C3O)C2=NC=N1,0,G1,B,None,None,Negative
B-51,"InChI=1S/C14H16ClO5PS/c1-4-17-21(22,18-5-2)20-10-6-7-11-9(3)13(15)14(16)19-12(11)8-10/h6-8H,4-5H2,1-3H3",-5.3835,CCOP(=S)(OCC)OC1=CC=C2C(C)=C(Cl)C(=O)OC2=C1,0.42825,G3,B,None,None,Uncharged
B-56,"InChI=1S/C6H14N2O2/c7-4-2-1-3-5(8)6(9)10/h5H,1-4,7-8H2,(H,9,10)",0.8351,[NH3+]CCCCC([NH3+])C([O-])=O,0,G1,B,None,None,Zwitterion
B-58,"InChI=1S/C3H9O6P/c4-1-3(5)2-9-10(6,7)8/h3-5H,1-2H2,(H2,6,7,8)",0.7643,OCC(O)COP([O-])([O-])=O,0,G1,B,None,None,Negative
B-59,"InChI=1S/C4H5NS/c1-2-3-5-4-6/h2H,1,3H2",-1.6953,C=CCN=C=S,0,G1,B,None,None,Uncharged
B-61,"InChI=1S/C2H8N2/c1-4(2)3/h3H2,1-2H3",1.2211,CN(C)[NH3+],0,G1,B,None,None,Positive
B-63,"InChI=1S/C15H21NO2/c1-3-18-14(17)15(9-11-16(2)12-10-15)13-7-5-4-6-8-13/h4-8H,3,9-12H2,1-2H3",-1.8861,CCOC(=O)C1(CC[NH+](C)CC1)C1=CC=CC=C1,0.15305,G3,B,None,None,Positive
B-64,"InChI=1S/C6H12O6/c7-1-3(9)5(11)6(12)4(10)2-8/h3,5-9,11-12H,1-2H2/t3-,5-,6-/m1/s1",0.6353,OCC(O)C(O)C(O)C(=O)CO,0,G1,B,None,None,Uncharged
B-65,"InChI=1S/C12H22O11/c13-1-4-6(16)8(18)9(19)11(21-4)23-12(3-15)10(20)7(17)5(2-14)22-12/h4-11,13-20H,1-3H2/t4-,5-,6-,7-,8+,9-,10+,11-,12+/m1/s1",0.7878,OCC1OC(CO)(OC2OC(CO)C(O)C(O)C2O)C(O)C1O,0,G1,B,None,None,Uncharged
B-66,"InChI=1S/C3H8O2/c1-3(5)2-4/h3-5H,2H2,1H3",1.1186,CC(O)CO,0,G1,B,None,None,Uncharged
B-68,"InChI=1S/C20H24O2/c1-3-20(22)11-9-18-17-6-4-13-12-14(21)5-7-15(13)16(17)8-10-19(18,20)2/h1,5,7,12,16-18,21-22H,4,6,8-11H2,2H3/t16-,17-,18+,19+,20+/m1/s1",-4.4192,CC12CCC3C(CCC4=CC(O)=CC=C34)C1CCC2(O)C#C,0,G1,B,None,None,Uncharged
B-69,"InChI=1S/C7H10N4O2S/c8-5-1-3-6(4-2-5)14(12,13)11-7(9)10/h1-4H,8H2,(H4,9,10,11)",-1.9885,NC(=[NH2+])NS(=O)(=O)C1=CC=C(N)C=C1,0,G1,B,None,None,Positive
B-70,"InChI=1S/C10H6Cl8/c11-3-1-2-4(5(3)12)9(16)7(14)6(13)8(2,15)10(9,17)18/h2-5H,1H2",-6.8644,ClC1CC2C(C1Cl)C1(Cl)C(Cl)=C(Cl)C2(Cl)C1(Cl)Cl,0.7572,G2,B,None,None,Uncharged
B-71,"InChI=1S/C22H32O3/c1-4-20(24)25-19-8-7-17-16-6-5-14-13-15(23)9-11-21(14,2)18(16)10-12-22(17,19)3/h13,16-19H,4-12H2,1-3H3/t16-,17-,18-,19-,21-,22-/m0/s1",-5.3669,CCC(=O)OC1CCC2C3CCC4=CC(=O)CCC4(C)C3CCC12C,0,G1,B,None,None,Uncharged
B-73,"InChI=1S/C18H24O2/c1-18-9-8-14-13-5-3-12(19)10-11(13)2-4-15(14)16(18)6-7-17(18)20/h3,5,10,14-17,19-20H,2,4,6-9H2,1H3/t14-,15-,16+,17-,18+/m1/s1",-4.8441,CC12CCC3C(CCC4=CC(O)=CC=C34)C1CCC2O,0,G1,B,None,None,Uncharged
B-74,"InChI=1S/C16H14ClN3O/c1-18-15-10-20(21)16(11-5-3-2-4-6-11)13-9-12(17)7-8-14(13)19-15/h2-9,21H,10H2,1H3",-2.1757,CN=C1CN(O)C(C2=CC=CC=C2)=C2C=C(Cl)C=CC2=N1,0,G1,B,None,None,Uncharged
B-75,"InChI=1S/C20H24ClN3S/c1-22-11-13-23(14-12-22)9-4-10-24-17-5-2-3-6-19(17)25-20-8-7-16(21)15-18(20)24/h2-3,5-8,15H,4,9-14H2,1H3",-4.3979,C[NH+]1CCN(CCCN2C3=CC=CC=C3SC3=CC=C(Cl)C=C23)CC1,0,G1,B,None,None,Positive
B-80,"InChI=1S/C10H14N2O/c1-3-12(4-2)10(13)9-6-5-7-11-8-9/h5-8H,3-4H2,1-2H3",0.749,CCN(CC)C(=O)C1=CC=CN=C1,0,G1,B,None,None,Uncharged
B-81,"InChI=1S/C9H7NO/c11-9-6-5-7-3-1-2-4-8(7)10-9/h1-6H,(H,10,11)",-2.1394,O=C1NC2=CC=CC=C2C=C1,0,G1,B,None,None,Uncharged
B-82,"InChI=1S/C14H12N4O2S/c15-10-5-7-11(8-6-10)21(19,20)18-14-9-16-12-3-1-2-4-13(12)17-14/h1-9H,15H2,(H,17,18)",-4.6026,NC1=CC=C(C=C1)S(=O)(=O)[N-]C1=NC2=CC=CC=C2N=C1,0,G1,B,None,None,Negative
B-83,"InChI=1S/C12H17N4OS.ClH/c1-8-11(3-4-17)18-7-16(8)6-10-5-14-9(2)15-12(10)13;/h5,7,17H,3-4,6H2,1-2H3,(H2,13,14,15);1H/q+1;/p-1",0.2207,CC1=C(CCO)SC=[N+]1CC1=CN=C(C)N=C1N,0,G1,B,None,None,Positive
B-84,"InChI=1S/C10H14O3/c1-8-4-2-3-5-10(8)13-7-9(12)6-11/h2-5,9,11-12H,6-7H2,1H3",-1.1887,CC1=CC=CC=C1OCC(O)CO,0,G1,B,None,None,Uncharged
B-85,"InChI=1S/C7H7ClO/c1-5-4-6(9)2-3-7(5)8/h2-4,9H,1H3",-1.5704,CC1=CC(O)=CC=C1Cl,0.0552,G3,B,None,None,Uncharged
B-86,"InChI=1S/C5H11NO2S/c1-9-3-2-4(6)5(7)8/h4H,2-3,6H2,1H3,(H,7,8)",-0.6593,CSCCC([NH3+])C([O-])=O,0.119151974,G3,B,None,None,Zwitterion
B-87,"InChI=1S/C3H8OS2/c4-1-3(6)2-5/h3-6H,1-2H2",-0.1547,OCC(S)CS,0,G1,B,None,None,Uncharged
B-88,"InChI=1S/C6H13O9P/c7-1-2-3(8)4(9)5(10)6(14-2)15-16(11,12)13/h2-10H,1H2,(H2,11,12,13)",0.5848,OCC1OC(OP([O-])([O-])=O)C(O)C(O)C1O,0,G1,B,None,None,Negative
B-89,InChI=1S/C4H8N2O2/c7-5-6-1-3-8-4-2-6/h1-4H2,0.9351,O=NN1CCOCC1,0,G1,B,None,None,Uncharged
B-90,"InChI=1S/C9H11NO4/c10-6(9(13)14)3-5-1-2-7(11)8(12)4-5/h1-2,4,6,11-12H,3,10H2,(H,13,14)",-1.5959,[NH3+]C(CC1=CC=C(O)C(O)=C1)C([O-])=O,0.144749446,G5,B,None,None,Zwitterion
B-95,"InChI=1S/C6H13NO2/c7-5-3-1-2-4-6(8)9/h1-5,7H2,(H,8,9)",0.5854,[NH3+]CCCCCC([O-])=O,0.032896879,G3,B,None,None,Zwitterion
B-97,"InChI=1S/C2H5NO/c1-2(3)4/h1H3,(H2,3,4)",1.5808,CC(N)=O,0,G1,B,None,None,Uncharged
B-98,"InChI=1S/C22H24N2O8/c1-21(31)8-5-4-6-11(25)12(8)16(26)13-9(21)7-10-15(24(2)3)17(27)14(20(23)30)19(29)22(10,32)18(13)28/h4-6,9-10,15,25-26,30-32H,7,23H2,1-3H3/b20-14-/t9-,10-,15-,21+,22-/m0/s1",-3.284,C[NH+](C)C1C2CC3C(=C(O)C2(O)C(=O)[C-](C(N)=O)C1=O)C(=O)C1=C(O)C=CC=C1C3(C)O,0,G1,B,None,Wrong Ionization,Zwitterion
B-99,"InChI=1S/C12H8Cl6O/c13-8-9(14)11(16)5-3-1-2(6-7(3)19-6)4(5)10(8,15)12(11,17)18/h2-7H,1H2",-6.2908,ClC1=C(Cl)C2(Cl)C3C4CC(C5OC45)C3C1(Cl)C2(Cl)Cl,0.069177276,G5,B,None,None,Uncharged
B-100,"InChI=1S/C19H24N2OS/c1-14(12-20(2)3)13-21-16-7-5-6-8-18(16)23-19-10-9-15(22-4)11-17(19)21/h5-11,14H,12-13H2,1-4H3/t14-/m1/s1",-4.2155,COC1=CC=C2SC3=CC=CC=C3N(CC(C)C[NH+](C)C)C2=C1,0,G1,B,None,None,Positive
B-102,"InChI=1S/C15H15NO2/c1-10-6-5-9-13(11(10)2)16-14-8-4-3-7-12(14)15(17)18/h3-9,16H,1-2H3,(H,17,18)",-4.0815,CC1=CC=CC(NC2=CC=CC=C2C([O-])=O)=C1C,1.330001023,G4,B,None,None,Negative
B-103,"InChI=1S/C16H18N3S.ClH/c1-18(2)11-5-7-13-15(9-11)20-16-10-12(19(3)4)6-8-14(16)17-13;/h5-10H,1-4H3;1H/q+1;/p-1",-0.8655,CN(C)C1=CC2=[S+]C3=CC(=CC=C3N=C2C=C1)N(C)C,0,G1,B,None,None,Positive
B-106,"InChI=1S/C5H11N2O2.ClH.Hg/c1-4(9-2)3-7-5(6)8;;/h4H,1,3H2,2H3,(H3,6,7,8);1H;/q;;+1/p-1",-1.5235,COC(C[Hg+])CNC(N)=O,0,G1,B,None,None,Positive
B-107,"InChI=1S/C4H9NO2/c1-4(2,5)3(6)7/h5H2,1-2H3,(H,6,7)",0.2453,CC(C)([NH3+])C([O-])=O,0.06265,G3,B,None,None,Zwitterion
B-108,"InChI=1S/C32H49NO9/c1-6-18(3)25(35)41-24-11-12-26(4)19-8-9-20-28(37)13-23(34)31(39)21(29(28,38)16-30(20,26)42-32(19,24)40)15-33-14-17(2)7-10-22(33)27(31,5)36/h6,17,19-24,34,36-40H,7-16H2,1-5H3/b18-6-/t17-,19-,20-,21-,22-,23-,24-,26-,27+,28+,29+,30+,31-,32-/m0/s1",-3.0163,CC=C(C)C(=O)OC1CCC2(C)C3CCC4C5(O)CC(O)C6(O)C(C[NH+]7CC(C)CCC7C6(C)O)C5(O)CC24OC13O,0,G1,B,None,None,Positive
B-110,"InChI=1S/C2H3FO2.Na/c3-1-2(4)5;/h1H2,(H,4,5);/q;+1/p-1",1.0452,[O-]C(=O)CF,0,G1,B,None,None,Negative
B-112,"InChI=1S/C8H13NO2/c1-9-5-3-4-7(6-9)8(10)11-2/h4H,3,5-6H2,1-2H3",0.8091,COC(=O)C1=CCC[NH+](C)C1,0,G1,B,None,None,Positive
B-114,"InChI=1S/C11H15NO2/c1-8(2)9-5-4-6-10(7-9)14-11(13)12-3/h4-8H,1-3H3,(H,12,13)",-3.3567,CNC(=O)OC1=CC=CC(=C1)C(C)C,0,G1,B,None,None,Uncharged
B-119,"InChI=1S/2C17H19NO3.H2O4S/c2*1-18-7-6-17-10-3-5-13(20)16(17)21-15-12(19)4-2-9(14(15)17)8-11(10)18;1-5(2,3)4/h2*2-5,10-11,13,16,19-20H,6-8H2,1H3;(H2,1,2,3,4)/t2*10-,11+,13-,16?,17-;/m11./s1",-1.0157,[O-]S([O-])(=O)=O.C[NH+]1CCC23C4OC5=C2C(CC1C3C=CC4O)=CC=C5O.C[NH+]1CCC23C4OC5=C2C(CC1C3C=CC4O)=CC=C5O,0,G1,B,None,Cosolvent Buffer,Zwitterion