ID,InChI,Solubility,SMILEScurated,SD,Group,Dataset,Composition,Error,Charge
A-5540,"InChI=1S/C40H22Cl6N6O4/c41-21-9-11-27(43)33(15-21)49-51-35-23-7-3-1-5-19(23)13-25(37(35)53)39(55)47-31-17-30(46)32(18-29(31)45)48-40(56)26-14-20-6-2-4-8-24(20)36(38(26)54)52-50-34-16-22(42)10-12-28(34)44/h1-18,49-50H,(H,47,55)(H,48,56)/b51-35-,52-36+",-8.150868125,OC1=C(N=NC2=CC(Cl)=CC=C2Cl)C2=CC=CC=C2C=C1C(=O)NC1=CC(Cl)=C(NC(=O)C2=CC3=CC=CC=C3C(N=NC3=CC(Cl)=CC=C3Cl)=C2O)C=C1Cl,0,G1,A,None,None,Uncharged
A-5541,"InChI=1S/C12H26S/c1-2-3-4-5-6-7-8-9-10-11-12-13/h13H,2-12H2,1H3",-7.573831768,CCCCCCCCCCCCS,0,G1,A,None,None,Uncharged
A-5544,InChI=1S/CH4.Nb/h1H4;,-7.635822708,[Nb],0.319579629,G5,A,None,None,Uncharged
A-5545,InChI=1S/C14H8O2/c15-13-9-5-1-2-6-10(9)14(16)12-8-4-3-7-11(12)13/h1-8H,-6.039760498,O=C1C2=CC=CC=C2C(=O)C2=CC=CC=C12,0.461759274,G5,A,None,None,Uncharged
A-5546,"InChI=1S/2C17H16N4O7S.Ca/c2*1-11-4-2-3-5-14(11)19-17(23)8-12(22)10-18-20-15-7-6-13(29(26,27)28)9-16(15)21(24)25;/h2*2-7,9H,8,10H2,1H3,(H,19,23)(H,26,27,28);/q;;+2/p-2",-7.739803669,CC1=CC=CC=C1NC(=O)CC(=O)C=N[N-]C1=CC=C(C=C1[N+]([O-])=O)S([O-])(=O)=O,0,G1,A,None,None,Negative
A-5547,"InChI=1S/C11H20O2/c1-5-13-10(12)8-6-7-9-11(2,3)4/h5H,1,6-9H2,2-4H3",-7.122461047,CC(C)(C)CCCCC(=O)OC=C,0,G1,A,None,None,Uncharged
A-5548,"InChI=1S/C43H58O3/c1-27(34-24-37(41(44)21-28(34)2)31-14-8-5-9-15-31)20-40(35-25-38(42(45)22-29(35)3)32-16-10-6-11-17-32)36-26-39(43(46)23-30(36)4)33-18-12-7-13-19-33/h21-27,31-33,40,44-46H,5-20H2,1-4H3/t27-/m0/s1",-7.396502027,CC(CC(C1=CC(C2CCCCC2)=C(O)C=C1C)C1=CC(C2CCCCC2)=C(O)C=C1C)C1=CC(C2CCCCC2)=C(O)C=C1C,0,G1,A,None,None,Uncharged
A-5550,"InChI=1S/2Al.3H2O4S.9H2O/c;;3*1-5(2,3)4;;;;;;;;;/h;;3*(H2,1,2,3,4);9*1H2/q2*+3;;;;;;;;;;;;/p-6",-7.498558651,[Al+3].[Al+3].[O-]S([O-])(=O)=O.[O-]S([O-])(=O)=O.[O-]S([O-])(=O)=O,0,G1,A,None,None,Negative
A-5552,"InChI=1S/C8F16/c9-1(7(19,20)21)3(11,12)2(10,8(22,23)24)5(15,16)6(17,18)4(1,13)14",-7.602120788,FC(F)(F)C1(F)C(F)(F)C(F)(F)C(F)(F)C(F)(C(F)(F)F)C1(F)F,0,G1,A,None,None,Uncharged
A-5553,"InChI=1S/C10F18/c11-1-2(12,5(17,18)9(25,26)7(21,22)3(1,13)14)6(19,20)10(27,28)8(23,24)4(1,15)16",-7.664711532,FC1(F)C(F)(F)C(F)(F)C2(F)C(F)(F)C(F)(F)C(F)(F)C(F)(F)C2(F)C1(F)F,0,G1,A,None,None,Uncharged
A-5554,"InChI=1S/C8F18/c9-1(10,3(13,14)5(17,18)7(21,22)23)2(11,12)4(15,16)6(19,20)8(24,25)26",-7.641525668,FC(F)(F)C(F)(F)C(F)(F)C(F)(F)C(F)(F)C(F)(F)C(F)(F)C(F)(F)F,0,G1,A,None,None,Uncharged
A-5555,"InChI=1S/C18H17N3S4/c1-18(2,3)21(24-16-19-12-8-4-6-10-14(12)22-16)25-17-20-13-9-5-7-11-15(13)23-17/h4-11H,1-3H3",-8.362937857,CC(C)(C)N(SC1=NC2=CC=CC=C2S1)SC1=NC2=CC=CC=C2S1,0,G1,A,None,None,Uncharged
A-5556,InChI=1S/C32Br6Cl10N8.Cu/c33-9-1-4(15(39)12(36)20(9)44)28-49-25(1)53-31-7-8(18(42)23(47)14(38)17(7)41)32(56-31)54-26-2-5(16(40)13(37)21(45)10(2)34)29(50-26)55-30-6-3(27(51-28)52-30)11(35)22(46)24(48)19(6)43;/q-2;+2,-9.144234111,ClC1=C(Cl)C(Cl)=C(Br)C2=C1C1=NC2=NC2=C3C(=C4N=C5N=C(N=C6N([Cu]N24)C(=N1)C1=C6C(Br)=C(Cl)C(Br)=C1Cl)C1=C5C(Cl)=C(Br)C(Cl)=C1Cl)C(Br)=C(Cl)C(Br)=C3Cl,0,G1,A,None,None,Uncharged
A-5557,"InChI=1S/C32H3Cl15N8.Cu/c33-2-1-3(34)12(35)5-4(2)25-48-26(5)50-28-8-9(16(39)22(45)21(44)15(8)38)30(52-28)54-32-11-10(17(40)23(46)24(47)18(11)41)31(55-32)53-29-7-6(27(49-25)51-29)13(36)19(42)20(43)14(7)37;/h1,25,29H;/q-2;+2",-9.039324078,ClC1=CC(Cl)=C(Cl)C2=C3NC(N=C4N5[Cu]N6C(=N3)C3=C(C6=NC6=NC(=NC5C5=C4C(Cl)=C(Cl)C(Cl)=C5Cl)C4=C6C(Cl)=C(Cl)C(Cl)=C4Cl)C(Cl)=C(Cl)C(Cl)=C3Cl)=C12,0,G1,A,None,None,Uncharged
A-5559,InChI=1S/C14H4Br10/c15-5-3(6(16)10(20)13(23)9(5)19)1-2-4-7(17)11(21)14(24)12(22)8(4)18/h1-2H2,-9.129987804,BrC1=C(Br)C(Br)=C(CCC2=C(Br)C(Br)=C(Br)C(Br)=C2Br)C(Br)=C1Br,0,G1,A,None,None,Uncharged
A-5560,"InChI=1S/C24H38O4/c1-5-9-11-19(7-3)17-27-23(25)21-13-15-22(16-14-21)24(26)28-18-20(8-4)12-10-6-2/h13-16,19-20H,5-12,17-18H2,1-4H3",-8.989632219,CCCCC(CC)COC(=O)C1=CC=C(C=C1)C(=O)OCC(CC)CCCC,0,G1,A,None,None,Uncharged
A-5563,InChI=1S/Cr,-10.01699993,[Cr],0,G1,A,None,None,Uncharged
A-5569,InChI=1S/3O.2Sm/q3*-2;2*+3,-5.558846833,O.O.O.[Sm+3].[Sm+3],0,G1,A,None,None,Uncharged
A-5577,InChI=1S/2O.W,-5.955730007,O=[W]=O,0.637644159,G4,A,None,None,Uncharged
A-5578,"InChI=1S/C33H50O6P2/c1-29(2,3)23-13-15-27(25(17-23)31(7,8)9)38-40-34-19-33(20-35-40)21-36-41(37-22-33)39-28-16-14-24(30(4,5)6)18-26(28)32(10,11)12/h13-18H,19-22H2,1-12H3/t33?,40-,41-",-6.813060611,CC(C)(C)C1=CC=C(OP2OCC3(CO2)COP(OC2=CC=C(C=C2C(C)(C)C)C(C)(C)C)OC3)C(=C1)C(C)(C)C,0,G1,A,None,None,Uncharged
A-5579,"InChI=1S/C10H20O2.C8H16O2.C5H12O2/c1-2-3-4-5-6-7-8-9-10(11)12;1-2-3-4-5-6-7-8(9)10;1-5(2,3-6)4-7/h2-9H2,1H3,(H,11,12);2-7H2,1H3,(H,9,10);6-7H,3-4H2,1-2H3",-6.655885563,CCCCCCCCCC([O-])=O,0,G1,A,None,Multi-constituent Substances,Negative
A-5581,"InChI=1S/C50H42Cl2N6O8/c1-25(2)65-49(63)31-17-15-27(5)39(21-31)55-57-43-33-13-9-7-11-29(33)19-35(45(43)59)47(61)53-41-23-38(52)42(24-37(41)51)54-48(62)36-20-30-12-8-10-14-34(30)44(46(36)60)58-56-40-22-32(18-16-28(40)6)50(64)66-26(3)4/h7-26,59-60H,1-6H3,(H,53,61)(H,54,62)",-7.007487981,CC(C)OC(=O)C1=CC=C(C)C(=C1)N=NC1=C(O)C(=CC2=CC=CC=C12)C(=O)NC1=CC(Cl)=C(NC(=O)C2=CC3=CC=CC=C3C(N=NC3=CC(=CC=C3C)C(=O)OC(C)C)=C2O)C=C1Cl,0,G1,A,None,None,Uncharged
A-5583,"InChI=1S/C24H16Cl3N3O2/c1-13-6-2-5-9-20(13)28-24(32)16-10-14-7-3-4-8-15(14)22(23(16)31)30-29-21-12-18(26)17(25)11-19(21)27/h2-12,29H,1H3,(H,28,32)/b30-22+",-7.69430966,CC1=CC=CC=C1NC(=O)C1=CC2=CC=CC=C2C(N=NC2=CC(Cl)=C(Cl)C=C2Cl)=C1O,0,G1,A,None,None,Uncharged
A-5584,"InChI=1S/C17H15ClN4O4/c1-10-3-8-14(15(9-10)22(25)26)20-21-16(11(2)23)17(24)19-13-6-4-12(18)5-7-13/h3-9,16H,1-2H3,(H,19,24)",-7.605298094,CC(=O)C(=N[N-]C1=CC=C(C)C=C1[N+]([O-])=O)C(=O)NC1=CC=C(Cl)C=C1,0,G1,A,None,None,Negative
A-5587,InChI=1S/Co.S/q+2;-2,-5.015250193,[Co++],1.028126168,G4,A,None,None,Uncharged
A-5589,InChI=1S/CH4.V/h1H4;,-6.205841507,[V],0.98234189,G4,A,None,None,Uncharged
A-5600,"InChI=1S/C34H28ClN5O7/c1-45-27-13-10-20(33(43)37-21-11-8-18(9-12-21)32(36)42)15-26(27)39-40-30-22-7-5-4-6-19(22)14-23(31(30)41)34(44)38-25-16-24(35)28(46-2)17-29(25)47-3/h4-17,39H,1-3H3,(H2,36,42)(H,37,43)(H,38,44)/b40-30+",-7.866240199,COC1=CC(OC)=C(Cl)C=C1NC(=O)C1=CC2=CC=CC=C2C(N=NC2=CC(=CC=C2OC)C(=O)NC2=CC=C(C=C2)C(N)=O)=C1O,0,G1,A,None,None,Uncharged
A-5601,"InChI=1S/C33H27ClN4O6/c1-42-27-14-13-20(32(40)35-21-10-5-4-6-11-21)16-26(27)37-38-30-22-12-8-7-9-19(22)15-23(31(30)39)33(41)36-25-18-28(43-2)24(34)17-29(25)44-3/h4-18,37H,1-3H3,(H,35,40)(H,36,41)/b38-30-",-7.846560339,COC1=CC(Cl)=C(OC)C=C1NC(=O)C1=CC2=CC=CC=C2C(N=NC2=CC(=CC=C2OC)C(=O)NC2=CC=CC=C2)=C1O,0,G1,A,None,None,Uncharged
A-5602,"InChI=1S/C10H5Br5O2/c1-2-5(16)17-3-4-6(11)8(13)10(15)9(14)7(4)12/h2H,1,3H2",-7.806077004,BrC1=C(Br)C(Br)=C(COC(=O)C=C)C(Br)=C1Br,0,G1,A,None,None,Uncharged
A-5603,"InChI=1S/C18H17N5O4/c1-10(24)16(23-22-13-5-3-4-6-15(13)27-2)17(25)19-11-7-8-12-14(9-11)21-18(26)20-12/h3-9,16H,1-2H3,(H,19,25)(H2,20,21,26)",-7.630599326,COC1=CC=CC=C1[N-]N=C(C(C)=O)C(=O)NC1=CC=C2NC(=O)NC2=C1,0,G1,A,None,None,Negative
A-5604,InChI=1S/H2P/h1H2,-6.566718008,[P],0,G1,A,None,None,Uncharged
A-5606,"InChI=1S/C36H32Cl4N6O8/c1-17(47)33(35(49)41-27-15-29(51-3)23(39)13-31(27)53-5)45-43-25-9-7-19(11-21(25)37)20-8-10-26(22(38)12-20)44-46-34(18(2)48)36(50)42-28-16-30(52-4)24(40)14-32(28)54-6/h7-16,33-34H,1-6H3,(H,41,49)(H,42,50)",-8.004532604,COC1=CC(NC(=O)C(=N[N-]C2=CC=C(C=C2Cl)C2=CC=C([N-]N=C(C(C)=O)C(=O)NC3=CC(OC)=C(Cl)C=C3OC)C(Cl)=C2)C(C)=O)=C(OC)C=C1Cl,0,G1,A,None,None,Negative
A-5607,"InChI=1S/C16H14N4O/c1-12-15(18-17-13-8-4-2-5-9-13)16(21)20(19-12)14-10-6-3-7-11-14/h2-11,15H,1H3",-7.541446627,CC1=NN(C(=O)C1N=NC1=CC=CC=C1)C1=CC=CC=C1,0,G1,A,None,None,Uncharged
A-5608,InChI=1S/2O.Ti,-4.999994562,O=[Ti]=O,1.974396666,G4,A,None,None,Uncharged
A-5609,"InChI=1S/C24H34Br4O4/c1-5-9-11-15(7-3)13-31-23(29)17-18(20(26)22(28)21(27)19(17)25)24(30)32-14-16(8-4)12-10-6-2/h15-16H,5-14H2,1-4H3",-5.949075231,CCCCC(CC)COC(=O)C1=C(Br)C(Br)=C(Br)C(Br)=C1C(=O)OCC(CC)CCCC,2.100425249,G2,A,None,Cosolvent Buffer,Uncharged
A-5614,"InChI=1S/C5F11NO/c6-1(7)3(10,11)18-4(12,13)2(8,9)17(1)5(14,15)16",-5.596058626,FC(F)(F)N1C(F)(F)C(F)(F)OC(F)(F)C1(F)F,0,G1,A,None,None,Uncharged
A-5617,"InChI=1S/C22H44O2.Ag/c1-2-3-4-5-6-7-8-9-10-11-12-13-14-15-16-17-18-19-20-21-22(23)24;/h2-21H2,1H3,(H,23,24);/q;+1/p-1",-6.782690092,CCCCCCCCCCCCCCCCCCCCCC([O-])=O,0.226541507,G3,A,None,None,Negative
A-5621,"InChI=1S/C30H31ClN4O7S/c1-6-35(7-2)43(38,39)19-12-13-25(40-3)24(15-19)33-34-28-20-11-9-8-10-18(20)14-21(29(28)36)30(37)32-23-16-22(31)26(41-4)17-27(23)42-5/h8-17,33H,6-7H2,1-5H3,(H,32,37)/b34-28+",-7.905255356,CCN(CC)S(=O)(=O)C1=CC=C(OC)C(=C1)N=NC1=C(O)C(=CC2=CC=CC=C12)C(=O)NC1=CC(Cl)=C(OC)C=C1OC,0,G1,A,None,None,Uncharged
A-5622,InChI=1S/2Nd.3O/q2*+3;3*-2,-7.63486078,O.O.O.[Nd+3].[Nd+3],0,G1,A,None,None,Uncharged
A-5623,"InChI=1S/C16H12Cl2N4O4/c1-9(23)15(16(24)19-12-5-3-2-4-11(12)18)21-20-13-7-6-10(17)8-14(13)22(25)26/h2-8,15H,1H3,(H,19,24)",-7.72175787,CC(=O)C(=N[N-]C1=CC=C(Cl)C=C1[N+]([O-])=O)C(=O)NC1=CC=CC=C1Cl,0,G1,A,None,None,Negative
A-5624,"InChI=1S/C27H24N6O7S/c1-28-41(37,38)23-13-21(39-2)20(12-22(23)40-3)32-33-24-16-7-5-4-6-14(16)10-17(25(24)34)26(35)29-15-8-9-18-19(11-15)31-27(36)30-18/h4-13,28,32H,1-3H3,(H,29,35)(H2,30,31,36)/b33-24-",-7.89163614,,0,G1,A,None,None,Uncharged
A-5625,InChI=1S/C26H12N4O2/c31-25-15-12-10-14-22-16(26(32)30-20-8-4-2-6-18(20)28-24(14)30)11-9-13(21(15)22)23-27-17-5-1-3-7-19(17)29(23)25/h1-12H,-7.757994585,O=C1N2C3=CC=CC=C3N=C2C2=C3C1=CC=C1C4=NC5=CC=CC=C5N4C(=O)C(C=C2)=C31,0,G1,A,None,None,Uncharged
A-5627,"InChI=1S/C32H30N2O2/c1-17-13-19(3)29(20(4)14-17)33-25-11-12-26(34-30-21(5)15-18(2)16-22(30)6)28-27(25)31(35)23-9-7-8-10-24(23)32(28)36/h7-16,33-34H,1-6H3",-7.825073045,CC1=CC(C)=C(NC2=CC=C(NC3=C(C)C=C(C)C=C3C)C3=C2C(=O)C2=CC=CC=C2C3=O)C(C)=C1,0,G1,A,None,None,Uncharged
A-5638,"InChI=1S/C9H18/c1-8(2)9-6-4-3-5-7-9/h8-9H,3-7H2,1-2H3",-5.311626594,CC(C)C1CCCCC1,0,G1,A,None,None,Uncharged
A-5643,InChI=1S/2Nb.5O,-6.947445159,O=[Nb](=O)O[Nb](=O)=O,0,G1,A,None,None,Uncharged
A-5648,InChI=1S/2Al.5O.2Zn/q2*+3;5*-2;2*+2,-7.623477375,O.O.O.O.O.[Al+3].[Al+3].[Zn++].[Zn++],0,G1,A,None,None,Uncharged
A-5649,"InChI=1S/C36H45NO2S/c1-2-3-4-5-6-7-8-9-10-11-12-13-14-15-16-19-26-37-35(38)29-23-22-28-27-20-17-18-21-31(27)40-32-25-24-30(36(37)39)33(29)34(28)32/h17-18,20-25H,2-16,19,26H2,1H3",-7.96678917,CCCCCCCCCCCCCCCCCCN1C(=O)C2=CC=C3SC4=CC=CC=C4C4=C3C2=C(C=C4)C1=O,0,G1,A,None,None,Uncharged
A-5660,"InChI=1S/C15H32/c1-6-14(4)10-8-12-15(5)11-7-9-13(2)3/h13-15H,6-12H2,1-5H3",-6.61539022,CCC(C)CCCC(C)CCCC(C)C,1.15693361,G2,A,None,None,Uncharged
A-5663,"InChI=1S/C15H13N5O4/c1-3-19-14(21)10(8-16)9(2)13(15(19)22)18-17-11-6-4-5-7-12(11)20(23)24/h4-7,17H,3H2,1-2H3/b18-13-",-6.815976001,CCN1C(=O)C(=N[N-]C2=CC=CC=C2[N+]([O-])=O)C(C)=C(C#N)C1=O,0,G1,A,None,None,Negative
A-5664,"InChI=1S/C44H38Cl4N8O6/c1-21-7-11-29(45)19-35(21)49-41(59)27-9-13-31(47)37(17-27)53-55-39(25(5)57)43(61)51-33-15-24(4)34(16-23(33)3)52-44(62)40(26(6)58)56-54-38-18-28(10-14-32(38)48)42(60)50-36-20-30(46)12-8-22(36)2/h7-20,39-40H,1-6H3,(H,49,59)(H,50,60)(H,51,61)(H,52,62)",-7.263233538,CC(=O)C(=N[N-]C1=CC(=CC=C1Cl)C(=O)NC1=CC(Cl)=CC=C1C)C(=O)NC1=CC(C)=C(NC(=O)C(=N[N-]C2=CC(=CC=C2Cl)C(=O)NC2=CC(Cl)=CC=C2C)C(C)=O)C=C1C,0,G1,A,None,Below LoD Below LoQ,Negative
A-5665,"InChI=1S/C24H44Cl6/c1-3-7-19(25)9-5-11-21(27)13-15-23(29)17-18-24(30)16-14-22(28)12-6-10-20(26)8-4-2/h19-24H,3-18H2,1-2H3",-7.965810564,CCCC(Cl)CCCC(Cl)CCC(Cl)CCC(Cl)CCC(Cl)CCCC(Cl)CCC,0.049526647,G5,A,None,None,Uncharged
A-5666,"InChI=1S/C21H21O3P/c1-16-10-4-7-13-19(16)22-25(23-20-14-8-5-11-17(20)2)24-21-15-9-6-12-18(21)3/h4-15H,1-3H3",-7.77984306,CC1=CC=CC=C1OP(OC1=CC=CC=C1C)OC1=CC=CC=C1C,0,G1,A,None,None,Uncharged
A-5667,"InChI=1S/C34H30Cl2N6O6.C33H28Cl2N6O5.C32H26Cl2N6O4/c1-19(43)31(33(45)37-23-7-11-25(47-3)12-8-23)41-39-29-15-5-21(17-27(29)35)22-6-16-30(28(36)18-22)40-42-32(20(2)44)34(46)38-24-9-13-26(48-4)14-10-24;1-19(42)30(32(44)36-23-7-5-4-6-8-23)40-38-28-15-9-21(17-26(28)34)22-10-16-29(27(35)18-22)39-41-31(20(2)43)33(45)37-24-11-13-25(46-3)14-12-24;1-19(41)29(31(43)35-23-9-5-3-6-10-23)39-37-27-15-13-21(17-25(27)33)22-14-16-28(26(34)18-22)38-40-30(20(2)42)32(44)36-24-11-7-4-8-12-24/h5-18,31-32H,1-4H3,(H,37,45)(H,38,46);4-18,30-31H,1-3H3,(H,36,44)(H,37,45);3-18,29-30H,1-2H3,(H,35,43)(H,36,44)",-8.540480954,COC1=CC=C(NC(=O)C(=N[N-]C2=CC=C(C=C2Cl)C2=CC=C([N-]N=C(C(C)=O)C(=O)NC3=CC=C(OC)C=C3)C(Cl)=C2)C(C)=O)C=C1,0,G1,A,None,None,Negative
A-5668,"InChI=1S/C22H16N2O2/c1-11-3-5-17-13(7-11)21(25)15-9-20-16(10-19(15)23-17)22(26)14-8-12(2)4-6-18(14)24-20/h3-10H,1-2H3,(H,23,25)(H,24,26)",-7.783778559,CC1=CC=C2NC3=CC4=C(NC5=CC=C(C)C=C5C4=O)C=C3C(=O)C2=C1,0,G1,A,None,None,Uncharged
A-5670,"InChI=1S/C23H15Cl2N3O2/c24-15-10-11-19(25)20(13-15)27-28-21-17-9-5-4-6-14(17)12-18(22(21)29)23(30)26-16-7-2-1-3-8-16/h1-13,27H,(H,26,30)/b28-21+",-7.907389462,OC1=C(N=NC2=CC(Cl)=CC=C2Cl)C2=CC=CC=C2C=C1C(=O)NC1=CC=CC=C1,0,G1,A,None,None,Uncharged
A-5671,"InChI=1S/C34H30Cl2N6O4/c1-19-5-11-25(12-6-19)37-33(45)31(21(3)43)41-39-29-15-9-23(17-27(29)35)24-10-16-30(28(36)18-24)40-42-32(22(4)44)34(46)38-26-13-7-20(2)8-14-26/h5-18,31-32H,1-4H3,(H,37,45)(H,38,46)",-8.101930722,CC(=O)C(=N[N-]C1=CC=C(C=C1Cl)C1=CC=C([N-]N=C(C(C)=O)C(=O)NC2=CC=C(C)C=C2)C(Cl)=C1)C(=O)NC1=CC=C(C)C=C1,0,G1,A,None,None,Negative
A-5672,InChI=1S/Dy,-7.511883361,[Dy],0,G1,A,None,None,Uncharged
A-5673,InChI=1S/C32H22O4/c33-31(25-15-19-29(20-16-25)35-27-7-3-1-4-8-27)23-11-13-24(14-12-23)32(34)26-17-21-30(22-18-26)36-28-9-5-2-6-10-28/h1-22H,-7.973611776,O=C(C1=CC=C(OC2=CC=CC=C2)C=C1)C1=CC=C(C=C1)C(=O)C1=CC=C(OC2=CC=CC=C2)C=C1,0,G1,A,None,None,Uncharged
A-5674,"InChI=1S/Al.3H3O3P/c;3*1-4(2)3/h;3*4H,(H2,1,2,3)/q+3;;;/p-3",-4.770880972,OP([O-])=O,1.247611497,G4,A,None,None,Negative
A-5675,"InChI=1S/C28H20N2O6/c1-33-21-11-3-17(4-12-21)15-23-27(31)35-25(29-23)19-7-9-20(10-8-19)26-30-24(28(32)36-26)16-18-5-13-22(34-2)14-6-18/h3-16H,1-2H3/b23-15+,24-16+",-6.983571154,COC1=CC=C(C=C2N=C(OC2=O)C2=CC=C(C=C2)C2=NC(=CC3=CC=C(OC)C=C3)C(=O)O2)C=C1,0,G1,A,None,None,Uncharged
A-5676,"InChI=1S/C16H12O3S/c1-2-19-16(18)10-7-8-14-12(9-10)15(17)11-5-3-4-6-13(11)20-14/h3-9H,2H2,1H3",-6.756602507,CCOC(=O)C1=CC=C2SC3=CC=CC=C3C(=O)C2=C1,0,G1,A,None,None,Uncharged
A-5678,InChI=1S/C32H16N8.Cu/c1-2-10-18-17(9-1)25-33-26(18)38-28-21-13-5-6-14-22(21)30(35-28)40-32-24-16-8-7-15-23(24)31(36-32)39-29-20-12-4-3-11-19(20)27(34-29)37-25;/h1-16H;/q-2;+2,-8.158424314,[Cu]1N2C3=NC4=NC(=NC5=C6C=CC=CC6=C(N=C6N=C(N=C2C2=C3C=CC=C2)C2=C6C=CC=C2)N15)C1=C4C=CC=C1,0.349485002,G3,A,None,None,Uncharged
A-5680,InChI=1S/Co.H2O.O/h;1H2;/q+1;;/p-1,-6.275970815,[O-][Co]=O,0.991200501,G4,A,None,None,Negative
A-5684,"InChI=1S/C24H44O4/c1-5-9-11-19(7-3)17-27-23(25)21-13-15-22(16-14-21)24(26)28-18-20(8-4)12-10-6-2/h19-22H,5-18H2,1-4H3",-6.926267992,CCCCC(CC)COC(=O)C1CCC(CC1)C(=O)OCC(CC)CCCC,0,G1,A,None,None,Uncharged
A-5686,InChI=1S/Co,-5.117146036,[Co],1.364117774,G4,A,None,None,Uncharged
A-5687,"InChI=1S/C36H72O2/c1-34(2)30-26-22-18-14-10-6-5-9-13-17-21-25-29-33-38-36(37)32-28-24-20-16-12-8-7-11-15-19-23-27-31-35(3)4/h34-35H,5-33H2,1-4H3",-7.086497346,CC(C)CCCCCCCCCCCCCCCOC(=O)CCCCCCCCCCCCCCC(C)C,0,G1,A,None,None,Uncharged
A-5688,"InChI=1S/C16H30O/c1-15-12-10-8-6-4-2-3-5-7-9-11-13-16(17)14-15/h15H,2-14H2,1H3",-5.74386512,CC1CCCCCCCCCCCCC(=O)C1,0,G1,A,None,None,Uncharged
A-5693,"InChI=1S/C12H18/c1-9(2)11-5-7-12(8-6-11)10(3)4/h5-10H,1-4H3",-6.602799271,CC(C)C1=CC=C(C=C1)C(C)C,0,G1,A,None,Below LoD Below LoQ,Uncharged
A-5695,"InChI=1S/C21H18N4O2/c1-14-18(20(26)24(22-14)16-9-5-3-6-10-16)13-19-15(2)23-25(21(19)27)17-11-7-4-8-12-17/h3-13,18H,1-2H3/b19-13+",-7.882271355,CC1=C(C=C2C(C)=NN(C2=O)C2=CC=CC=C2)C(=O)N(N1)C1=CC=CC=C1,0,G1,A,None,None,Uncharged
A-5696,"InChI=1S/C25H20N4O4/c1-15-7-3-6-10-21(15)26-25(31)20-14-17-8-4-5-9-19(17)23(24(20)30)28-27-22-12-11-18(29(32)33)13-16(22)2/h3-14,27H,1-2H3,(H,26,31)/b28-23-",-7.981147657,CC1=CC=CC=C1NC(=O)C1=CC2=CC=CC=C2C(N=NC2=CC=C(C=C2C)[N+]([O-])=O)=C1O,0,G1,A,None,None,PureChargeSeparation
A-5697,"InChI=1S/C32H24Cl2N8O2/c1-19-29(31(43)41(39-19)23-9-5-3-6-10-23)37-35-27-15-13-21(17-25(27)33)22-14-16-28(26(34)18-22)36-38-30-20(2)40-42(32(30)44)24-11-7-4-8-12-24/h3-18,35-36H,1-2H3/b37-29+,38-30+",-8.14162673,CC1=NN(C(=O)C1=N[N-]C1=CC=C(C=C1Cl)C1=CC=C([N-]N=C2C(C)=NN(C2=O)C2=CC=CC=C2)C(Cl)=C1)C1=CC=CC=C1,0,G1,A,None,None,Negative
A-5698,"InChI=1S/C33H24Cl2N4O6/c1-44-28-10-6-5-9-25(28)36-32(42)23-15-18-7-3-4-8-21(18)29(30(23)40)39-38-26-16-19(11-13-22(26)33(43)45-2)31(41)37-27-17-20(34)12-14-24(27)35/h3-17,38H,1-2H3,(H,36,42)(H,37,41)/b39-29-",-8.175068622,COC(=O)C1=CC=C(C=C1N=NC1=C(O)C(=CC2=CC=CC=C12)C(=O)NC1=CC=CC=C1OC)C(=O)NC1=CC(Cl)=CC=C1Cl,0,G1,A,None,None,Uncharged
A-5699,"InChI=1S/C22H26N2O2/c1-3-5-13-23-17-11-12-18(24-14-6-4-2)20-19(17)21(25)15-9-7-8-10-16(15)22(20)26/h7-12,23-24H,3-6,13-14H2,1-2H3",-7.931857078,CCCCNC1=CC=C(NCCCC)C2=C1C(=O)C1=CC=CC=C1C2=O,0,G1,A,None,None,Uncharged
A-5700,"InChI=1S/C20H40O/c1-17(2)9-6-10-18(3)11-7-12-19(4)13-8-14-20(5)15-16-21/h15,17-19,21H,6-14,16H2,1-5H3/b20-15+/t18-,19-/m1/s1",-4.861741107,CC(C)CCCC(C)CCCC(C)CCCC(C)=CCO,0,G1,A,None,None,Uncharged
A-5702,"InChI=1S/C19H41N/c1-2-3-4-5-6-7-8-9-10-11-12-13-14-15-16-17-18-19-20/h2-20H2,1H3",-5.85712424,CCCCCCCCCCCCCCCCCCC[NH3+],0,G1,A,None,None,Positive
A-5709,"InChI=1S/C18H15O3PS/c23-22(19-16-10-4-1-5-11-16,20-17-12-6-2-7-13-17)21-18-14-8-3-9-15-18/h1-15H",-6.954694347,S=P(OC1=CC=CC=C1)(OC1=CC=CC=C1)OC1=CC=CC=C1,0.1393768,G3,A,None,None,Uncharged
A-5712,"InChI=1S/C11H7ClF3N5O3/c12-7-2-1-6(11(13,14)15)3-8(7)17-9(21)4-19-5-16-10(18-19)20(22)23/h1-3,5H,4H2,(H,17,21)",-5.968106767,[O-][N+](=O)C1=NN(CC(=O)NC2=CC(=CC=C2Cl)C(F)(F)F)C=N1,0,G1,A,None,None,PureChargeSeparation
A-5716,InChI=1S/Al.3ClH/h;3*1H/q+3;;;/p-3,-6.568661207,[Al+3].[Cl-].[Cl-].[Cl-],3.314735506,G4,A,None,None,Negative
A-5724,"InChI=1S/C15H12Br4O2.C3H5ClO/c1-15(2,7-3-9(16)13(20)10(17)4-7)8-5-11(18)14(21)12(19)6-8;4-1-3-2-5-3/h3-6,20-21H,1-2H3;3H,1-2H2",-7.273530473,CC(C)(C1=CC(Br)=C([O-])C(Br)=C1)C1=CC(Br)=C([O-])C(Br)=C1,0.765099849,G2,A,None,Cosolvent Buffer,Negative
A-5725,"InChI=1S/C18H34O4/c1-15(2,3)11-9-10-12-18(21-22-18)14(19)20-17(7,8)13-16(4,5)6/h9-13H2,1-8H3",-6.971234419,CC(C)(C)CCCCC1(OO1)C(=O)OC(C)(C)CC(C)(C)C,0,G1,A,None,Prediction Estimation,Uncharged
A-5728,"InChI=1S/C20H10Cl2N2O2/c21-12-5-6-14-17(18(12)22)20(26)11-8-15-10(7-16(11)24-14)19(25)9-3-1-2-4-13(9)23-15/h1-8H,(H,23,25)(H,24,26)",-7.066625646,ClC1=CC=C2NC3=CC4=C(NC5=CC=CC=C5C4=O)C=C3C(=O)C2=C1Cl,0,G1,A,None,None,Uncharged
A-5730,"InChI=1S/C18H14Cl2N6O2/c19-16-11-15(26(27)28)12-17(20)18(16)24-23-13-3-5-14(6-4-13)25(9-1-7-21)10-2-8-22/h3-6,11-12H,1-2,9-10H2",-7.115252612,[O-][N+](=O)C1=CC(Cl)=C(N=NC2=CC=C(C=C2)N(CCC#N)CCC#N)C(Cl)=C1,0,G1,A,None,None,PureChargeSeparation
A-5731,"InChI=1S/C2H2O4.Co/c3-1(4)2(5)6;/h(H,3,4)(H,5,6);/q;+2/p-2",-4.667787925,[O-]C(=O)C([O-])=O,0.754839593,G4,A,None,None,Negative
A-5734,"InChI=1S/C16H32O3/c1-8-10-11-13(9-2)14(17)18-19-16(6,7)12-15(3,4)5/h13H,8-12H2,1-7H3",-5.94953191,CCCCC(CC)C(=O)OOC(C)(C)CC(C)(C)C,0,G1,A,None,Unstable,Uncharged
A-5736,"InChI=1S/C27H46O/c1-18(2)7-6-8-19(3)23-11-12-24-22-10-9-20-17-21(28)13-15-26(20,4)25(22)14-16-27(23,24)5/h9,18-19,21-25,28H,6-8,10-17H2,1-5H3/t19-,21+,22+,23-,24+,25+,26+,27-/m1/s1",-7.100195364,CC(C)CCCC(C)C1CCC2C3CC=C4CC(O)CCC4(C)C3CCC12C,0.245297682,G3,A,None,None,Uncharged
A-5737,"InChI=1S/C8H4F13I/c9-3(10,1-2-22)4(11,12)5(13,14)6(15,16)7(17,18)8(19,20)21/h1-2H2",-7.188638134,FC(F)(F)C(F)(F)C(F)(F)C(F)(F)C(F)(F)C(F)(F)CCI,0,G1,A,None,None,Uncharged
A-5741,"InChI=1S/C12H26S/c1-9(2)10(3,4)11(5,6)12(7,8)13/h9,13H,1-8H3",-7.711832978,CC(C)C(C)(C)C(C)(C)C(C)(C)S,0,G1,A,None,None,Uncharged
A-5742,"InChI=1S/C32H25ClN4O5/c1-41-27-15-13-21(33)18-25(27)35-32(40)24-16-19-8-6-7-11-23(19)29(30(24)38)37-36-26-17-20(12-14-28(26)42-2)31(39)34-22-9-4-3-5-10-22/h3-18,36H,1-2H3,(H,34,39)(H,35,40)/b37-29-",-8.184413465,COC1=CC=C(Cl)C=C1NC(=O)C1=CC2=CC=CC=C2C(N=NC2=CC(=CC=C2OC)C(=O)NC2=CC=CC=C2)=C1O,0,G1,A,None,None,Uncharged